192
Properties=species:S:1:pos:R:3 #=T CELL(abcABC):=T 23.48741=T 90.00000=T Step:=T 498800=T Bead:=T 0=T positionsatomic_unit=T cellatomic_unit=T pbc="F F F"
O        4.36469408      24.19492704       3.97923696
H        3.57084445      23.66628468       4.27472101
H        4.23453633      24.98287285       4.53747913
O        9.84626429       6.73711288       4.93965457
H       10.10004162       7.54401741       5.41934757
H       10.16019678       6.86674240       4.05698150
O       16.79010025      -1.94911880      25.08765656
H       17.19136777      -2.63534352      25.75402013
H       17.37163860      -1.17046572      25.29305858
O        2.97546717      -5.46996214      14.98972693
H        2.90531584      -6.48436745      15.15431049
H        2.09745908      -5.07775064      14.82230471
O       10.60527828       8.54402154       6.95876820
H       10.09921667       8.01358564       7.66619498
H       10.12939583       9.38207098       6.72707930
O       12.65622646       9.23186498      -3.60557860
H       11.95466789       9.02454563      -4.25565456
H       12.27875018       9.87301514      -2.96899230
O       10.40269035       0.36306044      15.65256202
H       10.43215134       1.30422253      15.44690580
H       -1.05919742       0.14214416      15.61677452
O       10.20491414      -4.69212049     -10.51203064
H       10.95694300       7.69691561     -11.14533009
H        9.85278829      -3.76305455     -10.55373170
O        4.98883526       7.96977072       1.26214113
H        5.18998412       7.61866258       0.34589242
H        4.08579577       7.58749215       1.79441327
O       16.26688289       8.38421569      18.47522539
H       15.88810541       8.84210234      19.21191283
H        3.68131718       8.89491989      17.67180965
O        6.20030796       0.38408627      12.46722515
H        6.69192209      -0.46683034      12.63152428
H        6.51997068       0.93563681      13.26858088
O       -0.09965518      15.52998851       0.17487322
H       -0.99462070      15.29429109      12.32396082
H       -0.02124507      16.48560696      -0.19183024
O       15.73520343      -2.09915244      -4.32026559
H       14.83448807      -2.10906289      -3.92291096
H       16.34432136      -2.09342949      -3.53290934
O      -12.71396253       4.55020641      -3.62350967
H      -12.21187636       5.29916717      -4.00253559
H      -13.23397175       4.27191514       7.98816435
O       -5.14179696       8.00137866      15.48208474
H       -5.88115173       8.04188623      14.80527748
H       -4.81976248       8.90237279      15.57983795
O       10.14297206      13.47673368       8.45117267
H       10.11659636      13.11628179       7.56664541
H       11.06128635      13.85124940       8.54784012
O       11.30337831      11.23628903      -2.24458678
H       11.38597909      11.39825695      -1.21900572
H       10.93041705      12.00452394       9.69667629
O        3.51413045       2.99552412      -2.50033454
H       15.56830566       2.47663014      -1.75255876
H        3.77331747       2.33598788      -3.20439499
O      -12.98926698      -1.47817697       0.40675478
H      -12.60823670      -0.76911391       1.05028626
H      -12.11610757      -2.05627463       0.42661781
O       -8.98468819      26.20726230       2.12386086
H       -8.27181373      25.52566220       2.20731475
H       -9.06023013      26.57717701       3.03131105
O       11.85102002      -9.35437234       5.13057245
H       12.41700529      -9.99491867       5.61189314
H       11.06015429      -9.35062085       5.72328211
O       19.96789728      -7.27933903      28.15286263
H       20.18247486      -6.45783772      28.62940561
H       20.39636167      -7.18700139      27.29783322
O       25.52427784       5.60288390       5.82461293
H       26.44903108       5.32610579       5.86496080
H       25.08953325       4.78166181       5.49877206
O        1.84088259      10.32483231       4.35814759
H        1.47501126       9.44796111       4.05665001
H        1.26443153      10.67918355       5.13664504
O        6.85104851      20.38384474       6.06308191
H        5.84906658      20.41998566       5.92835717
H        7.29849808      20.40442974       5.21575240
O       -4.82918939       1.13415206      22.66193279
H       -5.15284334       2.03481083      22.48040044
H       -5.29694973       0.91436322      23.48342749
O        9.37968118      -5.06915236       9.21877918
H        8.54718432      -5.59861646       8.91133762
H        9.11350505      -4.18589058       9.62976466
O       -0.48122885       6.35002353      -0.14200471
H       -1.22187207       5.94969530      11.80829841
H        0.08636303       6.77590440      -0.86131888
O        7.29388952      22.84111503       0.04948151
H        7.73411582      22.64752972      -0.84935078
H        8.06402096      22.86818622       0.70904313
O       -5.47791208      11.45064738      20.97944314
H       -5.93933288      10.83562440      21.61384535
H       -5.36577253      12.30048141      21.50466570
O       -8.66150644      17.94563995       6.57075090
H       -8.08260736      17.35850461      18.47052232
H       -8.62167735      18.92809524       6.17969651
O       14.28055670      -0.07641966     -14.62586751
H       13.64798582      -0.79351361     -14.39391118
H       14.58243813       0.35802656     -13.75109884
O        9.51716615      14.96382465       1.84926164
H        9.30068070      14.92628992       0.87649511
H        9.50118783      15.90290630       1.92209731
O       -6.07139755      -6.82178974      -0.22142991
H       -5.36143838      -6.94076862       0.45692421
H       -6.89154663      -7.18609706       0.16383568
O       18.78769036      -8.65758864      10.03308558
H       19.00669223      -7.92777389      10.67640253
H       17.83894082      -8.91754883      10.15621189
O        2.79565540       5.59185055      21.62107240
H        2.61779780       4.66585601      21.89210563
H        3.13544358       5.65416211       8.23773188
O        8.88484190      -2.45201905      10.31125230
H        9.80762207      -2.13327464      10.41360935
H        8.55309032      -2.03994479       9.51915434
O        5.66960747       3.96499160       5.32161402
H        6.34163985       3.57962633       6.01540494
H        6.31008388       4.24034972       4.59843222
O       25.22197969      14.16824829       8.74413368
H       25.83054671      13.55762125       9.33661939
H       25.31478131      15.13297803       8.94227747
O       12.63388479      -1.01013277      18.94175841
H       11.61235449      -0.86418088      18.75469710
H       12.71538848      -1.51899317      19.79113697
O       -2.94038952      -2.06324711     -10.51172164
H       -2.04795606      -1.60889357     -10.64910644
H       -3.32241190      -1.72534554      -9.59829563
O      -11.90230391      -9.77261133       2.89007809
H      -12.59988232      -9.62938573       3.67153638
H      -12.27828054     -21.92088531       1.99075635
O       -5.35049661       1.40410927       2.91146564
H       -4.53135655       1.93704477       2.61091150
H       -5.06381617       0.50581052       3.13224593
O       14.89326926       1.73330890      12.11203385
H       15.35272643       1.59283049      12.99064662
H       13.95644889       2.03491732      12.28025361
O       17.80274037       9.80322045      22.44237339
H       17.47268404      10.15413676      23.35289648
H       17.72655870       8.82311527      22.50059233
O       -7.04848359       3.73818134      14.34559920
H       -6.85370857       2.81532331      14.29444193
H       -6.53378788       4.14012327      15.05726222
O       22.07617614       2.49332512      11.48493712
H       21.44882711       1.89893957      10.90310016
H       21.98741233       3.36847980      11.00478156
O       19.57723126      18.64733083      20.61298036
H       18.72076172      18.64338846      21.18048512
H       19.34984854      19.24965167      19.87605385
O       -4.09109207      10.15961280      19.30376004
H       -4.72108766      10.68679047      19.86717974
H       -4.68691566       9.40290261      19.04476842
O       12.91612524       7.94654929       3.77793757
H       12.00110791       8.14905879       3.63465613
H       12.99335014       7.17966756       4.42792348
O       17.52403030      19.50286391      -2.34413135
H       17.94736167      19.08140166     -14.02125231
H       16.66918798      19.10456734      -2.55479812
O       -2.26940019      11.89861195      -6.62162751
H       -2.29719635      12.31869267      -7.57325918
H       -3.09724511      11.41213368      -6.37290383
O      -11.29868753      14.06819033      -6.20112251
H      -11.51688619      13.11916297      -6.20511119
H      -11.44638089      14.20439865      -5.23339744
O        2.63790417      -7.88079429       3.14539542
H        3.47081304      -8.39682145       2.89880186
H        1.87625204       3.95502464       2.82313065
O        0.55107817      12.41090369       2.57969808
H        0.83064153      13.35523365       2.74342816
H      -11.18769545      11.79787362       2.81707517
O       -5.28446805      10.97905221       4.07875554
H       -6.21632313      11.15197315       3.93222174
H       -5.10639207      11.06154810       5.00644940
O        1.56964459      -3.01798778       0.33107076
H        1.44138404      -3.83931532      -0.29337312
H        2.28270635      -2.48628366      -0.06982405
O       -8.63508727       2.00776212       5.09255891
H        4.55031007       2.63135154       5.06689608
H       -9.52167549       2.41867021       5.34942275
O       22.38695625       4.47325176      -5.54532642
H        9.13626061       3.97707442      -5.41387106
H       22.17580793       5.04056441      -6.29717101
O       29.23371465      13.67902018      -4.35238032
H       29.30806782      14.00184757      -5.32098061
H       29.17806977      12.70778628       8.08300802
O       22.57132442       5.23127610      10.56307829
H       22.30142231       6.12074333      10.12398216
H       23.21074437       4.88368633       9.87972908
O       -3.43803816       5.47734511       1.09934647
H       -3.10008084       5.32651911       0.18356305
H       -3.02802089       6.40255949       1.37622522
O       13.65774442      19.77166987      10.45633947
H       13.26776822      20.30424515       9.70164299
H       14.27785695      19.16670597       9.99871835
O        7.17397513       3.32924821      -5.04996676
H        6.75416845       2.58322467      -4.54718065
H        6.97976993       4.08328435      -4.41501477
