81
Energy/monomer =  -0.269767  +-  0.00203466  eV
O  1.97525877250000  0.93058901010000 -1.47931971170000
O -0.59153320310000  0.11641822600000 -0.88441907320000
O  1.63279918370000  2.10985196850000  2.77716323750000
O -1.63121307590000  6.93252789040000  3.66459010690000
O -3.44167804610000  3.18674971890000  1.19043287580000
O -0.27776840040000  9.16285425840000  3.86134710750000
O  0.02192051800000  2.97178141630000 -2.42979887030000
O -2.24142020280000  5.71397338820000  1.02891399240000
O  0.75789878210000  4.83807937080000  6.02224549360000
O  0.36844913230000 -0.19051885330000  3.72188515800000
O  2.27370205320000  5.61865490880000  0.87177876420000
O -1.61838859780000  3.31914010020000  5.09425815980000
O -0.02208778120000  4.77290082590000  3.53698032650000
O  2.99164998870000  2.82198362910000  0.46117520730000
O  3.15075081940000  6.18696215060000  5.19663434130000
O -1.85877167680000  5.62186042410000  6.70452552470000
O -3.50761883140000  1.67814616490000  3.50819854590000
O -1.72996541890000  0.64704256490000  5.57410808080000
O -1.78898838730000  0.39459810850000  1.86785133190000
O  1.69047443650000  7.32323269810000  3.18634056590000
O  3.09532677330000  4.07731338950000 -2.17879826830000
O -0.54532176350000  3.28247480850000  1.41870348980000
O  4.82144304150000  4.67484837790000 -0.22895396260000
O  1.47643498740000  3.61186111160000 -4.78023454340000
O  2.51471817030000  1.24024790190000 -4.28513041750000
O -0.13286972140000  5.10494050820000 -0.61948545630000
O  3.31494793300000  4.19394826110000  3.25456392710000
H  2.37415233160000  1.28310264240000 -0.72576586660000
H  1.05693252960000  0.64874741670000 -1.24108233830000
H -0.57524577180000 -0.85002453940000 -1.06285461640000
H -1.07514370580000  0.18913863560000 -0.05715644870000
H  1.28830089480000  1.29885997460000  3.12328184600000
H  0.94208573980000  2.44886178260000  2.17815523880000
H -1.36482053740000  7.86392892680000  3.81746213370000
H -1.99339747730000  6.61295297920000  4.52877372130000
H -3.28451994680000  4.17401489240000  1.23931371050000
H -3.33562860230000  2.80884131700000  0.29270543960000
H  0.12240949370000 10.04015449750000  4.09775099610000
H  0.57444420700000  8.57805800960000  3.58978819500000
H  0.41235617460000  3.26517182030000 -3.27909238710000
H  0.21856588120000  1.97912417080000 -2.29714767770000
H -1.51346692550000  5.40295675810000  0.42889426830000
H -1.93357948240000  6.36898424520000  1.65313785100000
H  0.80297223710000  3.89483676300000  6.02905129570000
H  0.78458708900000  5.07365100290000  5.06236362420000
H  0.53265427050000 -1.12895762170000  3.74348849830000
H -0.32873726870000  0.09102733610000  4.36019048890000
H  3.07261057120000  5.73824121010000  0.43637326950000
H  2.45020522160000  5.07423586330000  1.74462683250000
H -1.06123948820000  3.86799358310000  4.51262911640000
H -1.96016419160000  3.99399978990000  5.72073516260000
H -0.35704425720000  5.73522502950000  3.45034404300000
H -0.11538456950000  4.32359468740000  2.65389532680000
H  3.65507649970000  3.53304564320000  0.50685136420000
H  2.76897094450000  2.48362044870000  1.39773564160000
H  3.40276706780000  5.31793082840000  4.79180556460000
H  2.59737864470000  5.95863462320000  5.88175598130000
H -0.87690892810000  5.57266996290000  6.59326794460000
H -2.16649346740000  5.68996195450000  7.62704761480000
H -3.73176665780000  2.11871240470000  2.64388151560000
H -2.91005914020000  2.27626252920000  3.98948066830000
H -1.54263526920000  1.59892704390000  5.44725305050000
H -2.59109802200000  0.40075317440000  5.22028633970000
H -1.02246369140000 -0.00815475800000  2.41308860050000
H -2.42890460900000  0.64491710760000  2.56063066680000
H  1.65709009390000  6.79076749030000  2.33838572460000
H  2.40289048660000  6.95848410860000  3.83800617810000
H  2.34540904990000  3.43539473330000 -2.06913552890000
H  2.94781930220000  4.40200079730000 -3.08759398520000
H -0.37975142360000  3.87837095150000  0.67735152240000
H -1.50534260470000  3.04540019490000  1.44795838060000
H  4.31059331780000  4.49250338570000 -1.05110610540000
H  5.60626433260000  5.05982399050000 -0.57624729100000
H  1.93167365250000  2.73076695730000 -4.63895119220000
H  1.43781931950000  3.89821680630000 -5.70851283090000
H  2.38063301420000  1.23887287070000 -3.28578143790000
H  3.41461870770000  1.05328410010000 -4.36084511950000
H -0.18814598830000  4.60216591840000 -1.45608743020000
H  0.81110814440000  5.38945765190000 -0.55860470100000
H  2.69422220160000  3.41949886610000  3.45042616610000
H  4.20334865350000  3.80612581490000  3.23403841260000
81
Energy/monomer =  -0.270861  +-  0.00134069  eV
O  1.04120661460000  0.50598888120000  0.81675045570000
O -1.20621740030000  1.35471772960000 -0.16477406570000
O  2.40482088270000  4.07323183450000  4.28965365590000
O -1.40289044590000  4.03751169200000  5.72720258010000
O -4.84151955050000  1.85973896340000  8.30257879630000
O -0.78523109500000  8.31189487970000  8.73418579020000
O -3.62222539720000  5.04310984690000  2.72648792270000
O -4.07024150510000  2.83937543490000  5.69303645670000
O -0.22581150860000  6.26102474760000 10.43538811770000
O -1.02274597600000  2.74290746100000  2.19555906200000
O -5.13090337300000  5.49211474800000  4.87188350080000
O  0.71825176900000  1.39456583920000  7.71258197420000
O -1.77076540620000  4.43626091340000  8.89796373140000
O -0.00792525630000  4.74576769190000 -0.36491921570000
O -0.78063614090000  7.40050776100000  6.06544151500000
O  0.73756525280000  4.03450265670000  7.74790360550000
O -1.84825260570000  1.16994063770000  5.87138292820000
O  0.17849171120000  2.41858221440000  4.51132920520000
O -3.66342337550000  2.41167559780000 -0.00212398260000
O -2.18708636310000  1.59191261610000  8.66833106290000
O -1.29734722340000  6.02221594150000  3.82458887380000
O -3.54726412800000  2.27451450840000  2.96977305820000
O  0.79364508710000  4.82766447270000  2.28243468710000
O -2.69418922390000  4.99819560530000  0.20395045490000
O  1.06724225900000  2.15387106490000 -1.23484437870000
O -3.11432172520000  5.95367418670000  6.87426154920000
O  1.67027887650000  5.94730879580000  6.18980546430000
H  0.03240012420000  0.64914537540000  0.73387930480000
H  1.33468222830000  0.80564121310000  1.70039945020000
H -2.16452489600000  1.60741572260000 -0.21818697650000
H -0.78838723150000  1.66973472710000 -1.02751333900000
H  3.26307976110000  3.73910168570000  4.47375007440000
H  2.19378639060000  4.64786719040000  5.06905908060000
H -0.92864454680000  3.25953864390000  5.30823976790000
H -0.92621563960000  3.98521386580000  6.58240864890000
H -5.33960998540000  1.11430918250000  7.96634217190000
H -4.40112399710000  2.21825941100000  7.46076200610000
H -0.47898260530000  7.89756772170000  7.91887395640000
H -0.84349352750000  9.27186399370000  8.66532954180000
H -3.07970514590000  5.16151443060000  1.93041098880000
H -3.51414080600000  4.05511355230000  2.90573923530000
H -4.27087526970000  3.77684940000000  5.68301210420000
H -3.06827747520000  2.73665497190000  5.84565463900000
H -0.20249764260000  7.12538785610000 10.05482644650000
H -0.37223299830000  6.52955244600000 11.35680493230000
H -0.82142499780000  3.76033525200000  2.21644020770000
H -0.99020329630000  2.44615434180000  1.19966864610000
H -6.05605477470000  5.69314257090000  4.63941786160000
H -4.61295842950000  5.40182900410000  4.04595994130000
H  0.97773715300000  0.63563874660000  7.19025096360000
H -0.19035502230000  1.17176494850000  8.14183450270000
H -1.43504905560000  5.07060970460000  9.62558208390000
H -2.43598984480000  4.95070878590000  8.38874168100000
H  0.29105125700000  3.87900591410000 -0.73580045300000
H  0.27544820890000  4.96885681660000  0.54562168830000
H -0.96387946210000  7.16135004700000  5.12303288860000
H -1.62511276220000  7.28095888240000  6.46364480070000
H  0.14345340850000  4.26557904350000  8.49271033580000
H  0.91328676140000  3.07027340870000  7.76401007840000
H -1.88040359510000  1.22658168500000  6.87805297800000
H -0.91064074000000  1.29121834140000  5.65457142130000
H  0.87171516850000  3.11115437800000  4.38163242060000
H -0.21546933420000  2.38871277650000  3.58026537190000
H -4.48245867020000  2.68212391000000 -0.32687046580000
H -3.83058945010000  2.35607615870000  0.99103754400000
H -3.14851139300000  1.59411274880000  8.87111515850000
H -2.00615749250000  2.52170533830000  8.68538823720000
H -2.19885110000000  5.97704612060000  3.44396756020000
H -1.12944703820000  5.24780849860000  4.47505002170000
H -3.73814132050000  2.01669093850000  3.93062263410000
H -2.57518942180000  2.32460913200000  2.87519259430000
H  0.24119648830000  5.51948614190000  2.74427716250000
H  1.58815357870000  4.75316732600000  2.92408570120000
H -2.96590826410000  4.08932579320000  0.20047379110000
H -1.85749601730000  5.01704101360000 -0.34175436300000
H  1.46579407140000  1.61061176330000 -0.47831829410000
H  1.58915359570000  1.83952993900000 -2.03120160190000
H -3.87409320760000  5.90019888090000  6.26605175430000
H -2.34633189850000  5.41193784670000  6.53264550120000
H  0.91594810770000  6.55026265000000  6.06325269790000
H  1.42719008170000  5.36634249270000  6.94362977440000
81
Energy/monomer =  -0.27234  +-  0.00156785  eV
O  0.35682195660000 -0.61936639620000 -0.93027840500000
O -2.48288981590000 -0.23058306760000 -0.05084097090000
O  2.74077285950000  1.06428364980000  4.86347140630000
O -0.59504166220000  3.41083350190000  5.07530533930000
O -3.71519078330000  2.34342608800000  4.74070941090000
O  2.35816210290000  0.05556348570000  8.85232641600000
O -3.93146959730000  3.49987928870000  0.49193271570000
O -1.65179142630000  5.95199469670000  5.21980628580000
O  2.77742263000000  3.19671486290000  9.15553098760000
O -0.75240679210000  1.21879349130000  3.33873332370000
O -2.84233730340000  4.69481209230000  3.18527925850000
O -2.59025296600000  3.30825267200000  9.56549630720000
O  0.72303524750000  4.08622514590000  7.74962677540000
O  1.48068180150000  4.88189959350000 -0.91267690270000
O  4.80009587250000  3.22391680250000  7.24485970910000
O -0.02686803790000  1.78842887580000  8.89897800710000
O -2.38136001480000  1.89980175910000  6.97037109440000
O -0.02876481270000 -0.16730286850000  5.87025123780000
O -3.06431918940000  1.33476504930000  2.14330437240000
O -1.99574786590000  5.39375286290000  7.96453646270000
O  1.39815022670000  4.25697517510000  3.44030527050000
O -1.68684455490000  2.43044952400000 -0.89830315270000
O  1.86755280930000  1.88509150280000  2.40249824920000
O -0.47044897900000  4.08229144380000  1.15427673780000
O  1.18432618930000  2.11664527390000 -0.42530503270000
O  2.47442822930000  3.65084687580000  5.80465015030000
O  4.57761592790000  0.44926214150000  6.67737947570000
H  0.84995930900000 -1.41422433440000 -0.65556101360000
H -0.49347748140000 -0.70941753860000 -0.42704580640000
H -2.79016626410000  0.34925532000000  0.73416531740000
H -2.83153852510000 -1.12581765970000  0.08377852290000
H  3.53401074240000  0.96043146800000  5.47533853160000
H  2.03655366870000  0.49159778440000  5.20510233200000
H -0.85922914890000  2.76777972810000  5.73480235600000
H -0.90064138050000  4.30662421300000  5.26932340830000
H -3.60932368660000  3.27259489250000  4.54079967330000
H -3.31276134880000  2.02323579900000  5.59660691190000
H  2.03610219470000 -0.58220087080000  9.50333200160000
H  1.42602930670000  0.42431745400000  8.59720020540000
H -3.68257877820000  2.75144995840000  1.05852993270000
H -3.22986966410000  3.54848433640000 -0.16181532360000
H -0.87749937540000  6.47623304570000  4.97457136760000
H -2.14422742270000  5.76941056040000  4.38141161890000
H  3.58521848280000  3.20988207110000  8.57848881550000
H  2.40068708980000  2.27078723510000  9.04902145760000
H -0.95307365830000  2.10454784850000  3.75962091350000
H -0.09454802930000  1.42704392830000  2.60517445500000
H -2.14687484850000  4.50630393200000  2.50824478840000
H -3.68252644280000  4.69241879870000  2.68841646320000
H -2.42229494390000  3.54888129480000 10.44444390040000
H -2.60937203390000  4.14007265020000  8.99528347350000
H  1.48610723840000  3.99761570150000  8.32113903740000
H  1.20179889520000  4.00973401270000  6.87669265150000
H  1.72327342780000  5.20897407830000 -1.80235006130000
H  1.50312625160000  3.91814061910000 -0.95272969480000
H  5.48724822250000  3.92794185800000  7.14028598540000
H  3.96289996180000  3.51978760210000  6.79644088290000
H  0.13930703210000  2.57866392570000  8.37394937210000
H -0.80036405210000  2.02902979860000  9.37895708150000
H -2.64188513150000  2.31548826660000  7.84064898760000
H -1.69916492770000  1.20138327480000  7.18686361570000
H -0.44107713860000 -0.96443023530000  5.88982893650000
H -0.13549251550000  0.12549924180000  4.94155420570000
H -3.60290884600000  1.70056747500000  2.91155388040000
H -2.20672061860000  1.12415410670000  2.56252894910000
H -2.10358451620000  5.99188939080000  7.21883941880000
H -1.03461420350000  5.14642400820000  7.88763815500000
H  0.84981307900000  4.45641632960000  2.64215084810000
H  0.71561934410000  4.05589422980000  4.07431975940000
H -2.06018937010000  1.49731607950000 -0.95950868200000
H -0.69821710780000  2.26751588350000 -0.79952755160000
H  1.77081519280000  2.86532175230000  2.65401613040000
H  2.16049655370000  1.45140707610000  3.22683853110000
H  0.14909832770000  4.32581508600000  0.37351942520000
H -1.03767050000000  3.41713192350000  0.72741468090000
H  1.61580537040000  2.12819253410000  0.42562720050000
H  1.14728706610000  1.19677114290000 -0.76239905970000
H  2.45596829370000  2.76976415030000  5.35501277940000
H  2.54553377320000  4.34656250990000  5.07231564520000
H  5.08939660940000  1.31318787340000  6.66353192340000
H  3.87885346120000  0.46622251130000  7.41565894440000
81
Energy/monomer =  -0.268913  +-  0.00148103  eV
O -0.58172750880000  1.12869836950000  0.32813966210000
O  1.59089036460000 -0.78754106650000  1.86238786830000
O  4.53340865790000  1.44703253150000  4.26176617420000
O  1.95929332040000  3.98269055570000  5.76210422480000
O -1.72430452190000 -0.49327785590000  5.65810182760000
O  2.68880079140000  2.71446312390000  8.03945697220000
O -0.73809225310000 -0.53258675680000  3.26520913680000
O -2.63642316710000  4.18805547830000  7.65441840900000
O  0.21288807680000  5.50286848310000  7.07718285190000
O  1.45844881830000  2.88833292160000  1.48295567460000
O -2.34035052080000 -0.02525372620000  8.45822290590000
O  0.15879866650000  0.79211608630000  8.39869026730000
O -0.40070509310000  3.88233910600000  9.04194175540000
O -1.61145921000000  3.75265610410000  3.85070291370000
O  1.09910473370000  8.27563720150000  5.50766064260000
O  2.12498780110000  1.40071567130000 10.20327484700000
O  2.36164690040000  0.96715775840000  5.99771488460000
O  3.77799357080000  0.60228892820000  1.44386120410000
O  0.80983478500000 -1.52596686520000  6.71952664970000
O -1.47252944780000  2.25695774590000  6.20726851500000
O -2.38911120130000  5.72565997500000  5.55030692750000
O -2.50422272130000  1.35859353760000  2.61468150040000
O  2.87822208440000  6.04909103050000  4.29562585170000
O  0.61443035340000  1.94978515440000  3.97002947800000
O  0.61884268420000  5.25095969450000  2.92013448740000
O -0.85207651330000  7.23014019140000  3.87503289970000
O  3.96921792750000  3.64542081960000  2.84376620950000
H -1.30332507610000  1.34097797710000  0.95886754580000
H -0.29264278240000  0.18917045530000  0.56899072490000
H  1.96938784860000 -1.65259820810000  1.71038344290000
H  2.30398556640000 -0.15516022680000  1.90516922250000
H  4.33287414200000  2.29368319550000  3.91008857840000
H  4.54608046190000  1.64937442550000  5.16330645870000
H  2.43753301070000  3.64796323860000  6.57670685070000
H  1.65581656410000  3.22513991330000  5.28318990470000
H -1.70862690490000  0.48349676230000  5.66700754480000
H -1.45959254390000 -0.82790324500000  4.77195476800000
H  2.79758257830000  2.21294982000000  8.89675204140000
H  2.71597623020000  1.98440223570000  7.34205084020000
H  0.14044669540000 -0.59176095480000  2.86419169750000
H -1.26990389840000  0.06462488230000  2.73674986280000
H -3.38785193110000  4.50615127080000  8.19175332110000
H -1.90315519130000  4.20559130770000  8.35810198930000
H  0.50704037470000  6.45321286710000  6.98904403170000
H  0.66846523950000  5.02163249710000  6.39103947320000
H  1.40337090670000  2.41018706510000  2.38026443510000
H  0.89394496560000  2.32289732250000  0.93087671780000
H -2.53357754310000 -0.39358146010000  7.49370003580000
H -2.90158420270000 -0.55401258700000  9.00707614430000
H  0.18086552140000  1.19020009200000  7.51713805640000
H -0.79072004170000  0.57437467490000  8.62957411660000
H -0.06348894330000  4.71188281400000  8.58652285940000
H  0.31792718900000  3.26584039040000  9.19515184250000
H -2.13668317750000  4.50579084120000  4.28754156810000
H -0.84264203110000  4.28157313160000  3.58632434450000
H  1.18864395880000  9.12862175560000  5.20161073390000
H  0.27956989480000  7.84435746670000  5.06403320070000
H  1.39355111430000  1.05161959600000  9.58469048210000
H  1.78217736300000  1.42204933930000 11.07304634840000
H  1.88480563660000  0.06632591030000  5.92616033920000
H  2.98541283820000  0.90876333720000  5.20005692080000
H  4.18015082500000  0.90561796290000  0.63121321820000
H  4.38245847680000  0.80589948270000  2.17631544470000
H -0.14303374330000 -1.45681654140000  6.49791444960000
H  0.81306583850000 -0.91221518030000  7.46639986430000
H -1.62147647940000  2.87689904160000  5.49701515910000
H -1.92316586910000  2.65996948400000  7.00895460850000
H -1.51395507570000  6.00231877600000  5.86305370560000
H -2.60345961040000  5.06114859950000  6.24716373590000
H -3.13162660130000  1.12767032520000  3.30996404590000
H -2.42351089080000  2.27842921340000  2.84592330700000
H  2.58845460960000  6.89805604350000  4.76491312930000
H  2.84802682200000  5.39073629100000  5.07495500890000
H -0.25434339820000  2.46296063800000  4.00501933910000
H  0.39226283160000  1.07668460410000  4.25032433820000
H  1.39492358990000  5.58533841530000  3.40101674210000
H  0.93822118550000  4.62457123430000  2.21826113290000
H -0.41785743460000  6.52215197820000  3.35248618750000
H -1.71937204020000  6.99939278720000  4.06875189060000
H  3.66027442240000  4.50341759860000  3.25225894130000
H  3.30967153350000  3.47205193010000  2.18236675980000
81
Energy/monomer =  -0.288824  +-  0.00169147  eV
O  1.43349171240000  1.04830505580000  0.92468050610000
O -0.14143992290000 -1.16071046240000  0.93485875130000
O  1.27816537250000  4.70554838510000  2.62283689850000
O -2.34529778310000  6.73899560640000  7.63287402260000
O  0.15817102800000  0.04318393990000  3.66775454250000
O  1.85940261810000  4.08300836960000  7.23449426670000
O -2.92131935780000 -0.67800879930000  1.42900463430000
O -1.93395290030000  1.35733747470000 10.97842401000000
O -0.95473714950000  2.88607255500000  5.25272848580000
O -3.44461422380000  2.05120795800000  3.54129471300000
O  0.32479950000000  3.14715794250000 10.64723585460000
O  2.98089826360000  2.55513859270000  9.13603125520000
O -0.78480227510000  4.41115881260000  8.36264878220000
O -2.25742768020000 -1.25447922190000  6.79040231450000
O -2.97484074870000  3.08057235850000  7.23597834630000
O  1.26743538610000  0.47488918470000  9.45101853930000
O  2.08423985890000  2.70187696240000  4.84739346240000
O -0.53323041150000  2.62803811770000  2.48718885060000
O  2.29060558640000 -1.83729855240000  7.63596209410000
O -0.46802660560000  0.76661893880000  7.08990917730000
O -3.26479439770000  0.57539885040000  8.47694058790000
O -2.55170175000000 -0.39259004690000  4.08211854400000
O -4.53998696600000  5.35969896470000  7.59384822090000
O  1.96004736700000  0.16630487570000  5.73355086550000
O -1.65064452600000  5.64192084940000  5.10523301440000
O -4.18956240340000  4.51020932020000  4.98858844720000
O  1.11494276710000  6.08309442920000  5.24553807170000
H  0.91864463860000  0.22980708800000  0.68805359360000
H  2.26234184610000  0.74912712190000  1.32011522050000
H -0.06540445130000 -1.10451035900000  1.89027119710000
H -1.12878185520000 -1.00576487270000  0.75573050940000
H  1.12614101090000  5.19423039480000  3.46648954820000
H  2.06556248930000  4.21234665140000  2.86019179090000
H -1.76327474780000  6.18685174490000  8.18364548960000
H -2.20645635660000  6.30778492760000  6.72997715330000
H -0.84103910330000  0.00583268720000  3.81842404040000
H  0.38910496710000  0.94701871880000  3.25453367020000
H  0.93082345970000  4.25706183950000  7.48129803310000
H  1.87400956070000  3.54900688840000  6.42900478670000
H -3.87762073920000 -0.81453341960000  1.29014603360000
H -2.83263780830000 -0.57792660070000  2.40474553470000
H -2.22859451670000  1.24853185190000 11.88655550010000
H -1.37204989930000  2.18349830120000 10.98502083800000
H -1.01277802650000  2.07077641050000  5.76494869100000
H -0.99893771930000  2.49250241410000  4.28877662360000
H -3.89593709470000  2.64172908320000  4.17195857960000
H -2.92447848430000  2.65104674720000  2.96359133300000
H  0.70369619110000  2.29283123350000 10.37535153560000
H  1.13339809080000  3.67253778760000 10.81484972220000
H  3.86658378880000  2.63281119600000  8.79270676140000
H  2.59148690550000  3.31451461640000  8.69539919580000
H -0.45901286290000  4.09392881360000  9.23072498470000
H -1.33295460110000  3.73705615190000  7.91613490640000
H -1.71014141720000 -1.73851458740000  7.42090007350000
H -2.86954363710000 -0.73133105900000  7.32197519580000
H -3.57102864480000  3.69566015700000  7.61531699990000
H -2.78776499970000  3.33788912690000  6.30312489910000
H  0.57200689420000  0.44910159030000  8.83321638430000
H  1.98166107630000  1.07802410360000  9.04941231490000
H  2.21814680790000  1.82284341810000  5.28120768430000
H  1.15133609650000  2.74795079570000  4.61214093200000
H -0.05963634790000  2.23467585730000  1.73009924570000
H -0.10945464480000  3.53528946860000  2.62980875840000
H  2.09032614230000 -1.56092914340000  8.56121714520000
H  2.70808532030000 -2.68284645040000  7.67908933660000
H  0.26850466750000  0.41592766390000  6.38116650330000
H -1.13963634400000  0.06492117890000  7.29471188720000
H -3.32240900770000  1.41948593330000  7.96884155380000
H -2.78071035150000  0.80396452980000  9.26533994040000
H -2.55650618640000 -0.74605465520000  5.05969807490000
H -3.08263585070000  0.42498359180000  4.12000605970000
H -5.37222425150000  5.74569633670000  7.71987142660000
H -3.87147657270000  6.05220285700000  7.80417354850000
H  2.19513719730000 -0.70610089050000  6.16359177810000
H  1.53653519430000 -0.07122087350000  4.89172134300000
H -1.25561616800000  4.72340067320000  5.11808168380000
H -0.79176188700000  6.15879278220000  4.96887041370000
H -4.48588006010000  4.70764721520000  5.91560754900000
H -3.44081937420000  5.08018646420000  4.83643677970000
H  1.78434006960000  6.62266282090000  4.82646680670000
H  1.54775785220000  5.55143003650000  5.98530192560000
81
Energy/monomer =  -0.293894  +-  0.00132528  eV
O -1.83952108260000 -1.17265470160000 -0.55166482930000
O  0.58854864370000 -0.24897469450000  0.70397636930000
O -3.04474151180000  2.68785807660000  2.51600929590000
O -1.67222247740000  6.83331139290000  8.99436841110000
O -1.37774944600000  2.12905164800000  4.86273711580000
O  2.49776104010000  3.73366216450000  4.24542810920000
O -2.23853926340000 -0.70228156160000  3.75179710160000
O -3.94924657370000  5.19080233360000  9.66324740610000
O  0.85547928530000  4.56751259090000  6.39994631510000
O -6.31943673970000 -0.64822489770000  2.52358287920000
O  2.56544974110000  2.98799012200000  9.01355407340000
O  1.21823416370000  1.29557879090000  4.71690115750000
O  0.71245068880000  5.36358574970000  9.08578891930000
O -5.58554279610000  2.71428282500000  6.14483839830000
O -1.72414398970000  4.65501023370000  3.72055989260000
O  0.70623067850000  1.61875114770000  7.45228042660000
O  0.43736309140000 -1.02029163950000  3.71158585430000
O -1.09945490570000  1.66020441790000  0.53180172760000
O -2.55113909780000 -0.94830877250000  6.67533456100000
O -2.00333082870000  1.47436896200000  7.38300313520000
O -3.45465091190000  3.78992696230000  7.48188515530000
O -5.30617264460000 -0.20558174390000  5.80048690320000
O -1.59504174440000  5.57943111210000  6.36464757840000
O -0.14291241610000 -1.88687581200000  6.35623645940000
O -3.78553839360000 -0.82006541580000  1.29693409590000
O -5.19054157260000  1.62287030940000  3.64609553290000
O  0.17377636580000  4.10814106470000  2.01819439490000
H -1.89920802830000 -1.25370425400000 -1.50278399270000
H -2.68334958560000 -0.85731219680000 -0.20397901260000
H -0.29706435150000 -0.58544442590000  0.41410431190000
H  0.81564120770000 -0.73491364020000  1.49861214520000
H -2.32012070750000  2.52595105740000  1.83571455510000
H -2.59461080740000  3.43807104980000  3.09938825880000
H -0.89985715490000  6.32175843750000  9.26003325950000
H -1.60319547220000  7.73254235840000  9.23126338390000
H -2.03097405890000  1.80567824700000  4.22229270930000
H -1.40752615500000  3.09879869950000  4.85643908860000
H  3.38298200750000  3.68457841800000  3.94063693460000
H  2.25068218450000  2.76495311350000  4.43685102910000
H -2.84405072520000 -1.35015703540000  3.26233556300000
H -2.35262229520000 -1.02644508760000  4.66872848510000
H -3.25137332120000  5.80888823420000  9.35322806000000
H -3.78138481270000  4.99390919240000 10.60188012410000
H  1.46577649730000  4.42411678320000  5.65055174370000
H  0.85007206740000  3.70239918490000  6.88626336120000
H -6.02463196610000  0.19587107000000  2.96286490830000
H -7.19742579030000 -0.79150533400000  2.80346647530000
H  1.81844951220000  2.54267223770000  8.47497292870000
H  2.76029146710000  2.34686314930000  9.66588885600000
H  1.17413335640000  0.36786933670000  4.38131609240000
H  0.32817848100000  1.64951468870000  4.84307029460000
H  0.95130108390000  5.60174592270000  8.17371369390000
H  1.50648715280000  4.82970849390000  9.32619982030000
H -5.88659924310000  1.91620382440000  6.50225660750000
H -4.92728072570000  3.13933325290000  6.77243693480000
H -0.84985839240000  4.65563664270000  3.18077576490000
H -1.67903803610000  5.27922335150000  4.46778851680000
H -0.23993589770000  1.45260035210000  7.64124810210000
H  0.99319971580000  1.18698339920000  6.57893398710000
H  0.59744632480000 -1.51895290900000  4.56922289500000
H -0.57186393870000 -0.94834741310000  3.62168927070000
H -0.28859287750000  1.02499539600000  0.65724667150000
H -1.54325972230000  1.27196227860000 -0.24438397320000
H -2.32772978320000 -0.14443466850000  7.08994452570000
H -3.53149578190000 -0.94773491990000  6.67119585640000
H -1.79735342300000  1.73026692990000  6.46141838890000
H -2.57987957290000  2.18385239100000  7.76232694630000
H -2.76004640620000  4.22863092190000  7.01633912240000
H -3.61233282090000  4.39307892750000  8.30498094430000
H -5.03586425740000  0.40677796540000  5.04708981590000
H -5.77052162180000 -0.94725015760000  5.37998246260000
H -0.67686242170000  5.18534845300000  6.48233736010000
H -1.65029695350000  6.24985894220000  7.06216799840000
H -1.04340487690000 -1.71068475760000  6.49685711410000
H  0.20152572370000 -2.49315281650000  7.02286915880000
H -4.72527478920000 -0.98681811720000  1.57959419430000
H -3.43413320760000 -0.09405064220000  1.81984326420000
H -4.42182831280000  2.10013568200000  3.25137394740000
H -5.38088152310000  2.14085107540000  4.45932029320000
H -0.17110614110000  3.25427508420000  1.62376794560000
H  0.93979452710000  3.84462782040000  2.50866382670000
81
Energy/monomer =  -0.285067  +-  0.00153891  eV
O  0.14846755800000 -1.83008104350000 -0.26869724760000
O  0.01288202700000  0.99724591390000 -0.32956587780000
O -3.46100417730000  0.14427247120000  2.32198801640000
O  0.17758630500000  7.92521738830000  5.98627605460000
O -0.11741096100000  3.19861314230000  3.41925291140000
O  0.64050578650000  3.46829675170000 -1.32673052900000
O  0.04099134460000  1.18836778110000  5.26283416620000
O -2.57382846740000  6.55440620010000  6.88980355360000
O -1.76978370550000  7.97752632080000  1.30272970120000
O -2.69083964750000  1.47136615700000  4.87128870580000
O  0.43739032710000  9.73277724850000  3.94924936140000
O  1.33457080240000  4.26577670390000  1.17114550190000
O -2.01010393150000 10.02836731400000  2.98392103870000
O -2.60058781690000  7.67027767060000  4.54876301820000
O -1.93333828130000  2.29729041140000  1.37383356900000
O  0.67545949200000  6.97483699250000  2.14904400830000
O  1.99076995170000  0.90231362630000  1.60062832370000
O -1.12240817970000 -1.17064730650000  2.34408904040000
O  2.56639552600000  3.50012168200000  5.16199798560000
O  1.01434992930000  5.84640821470000  4.42292033470000
O -0.88364815920000  4.35902112140000  6.31086123220000
O  0.93805178670000  2.76073740920000  7.41933239720000
O -2.05969879600000  5.13926757630000  3.16956635810000
O  3.60879190120000  3.17743109770000  2.53758494800000
O  1.34873430820000 -1.02985898910000  3.81500471950000
O -3.47483886100000  3.92527100510000  5.55908076940000
O -1.37198130550000  4.96338040190000  0.34796550140000
H  0.13273846830000 -0.93917278070000 -0.68410050960000
H  1.12065339500000 -1.94080491020000 -0.22338292420000
H  0.82642344200000  1.08295000500000  0.19864515910000
H -0.68984073540000  1.48163701510000  0.17493389970000
H -2.64012666430000 -0.37939842510000  2.22871378990000
H -4.02113554800000 -0.15679114420000  1.58063229530000
H -0.81096668730000  7.94008025540000  5.92832941850000
H  0.43775023540000  8.56825826690000  5.26874722660000
H  0.66029879430000  3.31826306450000  2.81909611530000
H -0.06407293460000  2.40896422400000  4.01183976530000
H  0.45654955570000  2.48960266830000 -1.27108274670000
H -0.26605486480000  3.90240785050000 -1.34265005120000
H -0.97310880490000  1.28482345410000  5.20467073930000
H  0.39231752070000  1.41610651680000  6.20142021660000
H -2.76042708580000  7.31221904400000  7.44617847840000
H -2.73251151160000  7.01758209000000  5.95687463630000