45
Energy/monomer =  -0.322513  +-  0.00251833  eV
O  1.66322697940000 -0.92324973570000 -0.35186220760000
O -0.45776008300000  0.78681333270000  0.11944605510000
O  3.53951208510000  0.77639392900000 -1.32046458300000
O -0.57027659820000  4.66525078800000 -0.91234381910000
O  2.82467008990000  3.80518505190000  2.50783433670000
O  1.05912146210000  2.41662632690000 -1.33542663460000
O  1.24000562160000  6.41845980910000  0.03330350370000
O  2.98116472960000  0.48514566900000  2.18258806980000
O  0.60944818110000  1.93689407360000  2.41997238300000
O  2.96096757800000  4.17215492900000 -0.24367137980000
O -2.15967623650000  3.04991858070000  0.22393427290000
O  0.56317737920000  5.47605870230000  2.72575233010000
O  5.08862684780000  2.23134867520000  2.85097501560000
O  5.20638519400000  2.53755197100000 -0.01077444690000
O -1.42229563190000  3.63362906000000  3.02443573260000
H  1.80482636210000 -1.73505813520000 -0.85955495610000
H  2.42260685680000 -0.35826219020000 -0.70808625430000
H -0.04077241060000 -0.15230287190000 -0.04336272000000
H -0.01324352180000  0.97891865170000  0.98093869370000
H  4.24637635360000  1.27773168780000 -0.86698434730000
H  3.83542274430000  0.83590401120000 -2.20574829530000
H -1.33710291340000  4.11792795610000 -0.55783131460000
H -0.15858601910000  4.05926656190000 -1.54358033900000
H  3.70433454580000  3.38958384680000  2.75945683690000
H  2.87922920810000  3.94545953680000  1.55536287250000
H  0.48484072810000  1.78382693560000 -0.82579187150000
H  1.83919056040000  1.86647899320000 -1.67688690470000
H  1.36128659680000  7.31484129000000 -0.25489925580000
H  0.50437363750000  5.95037660200000 -0.40769116600000
H  2.15403984580000  0.94247588680000  2.28060531110000
H  2.89100343060000 -0.27132777360000  1.62148443870000
H  1.30408374670000  2.61876020420000  2.42595846590000
H -0.16326743570000  2.47088793170000  2.68855444960000
H  2.63809133980000  5.08587813850000 -0.37526971040000
H  2.24243667000000  3.64913041550000 -0.71816505800000
H -2.24224805050000  3.03902035210000  1.19737645390000
H -1.71070796150000  2.17173355770000  0.06858376030000
H  0.72546707340000  5.83903609170000  1.80321976720000
H  1.40607643610000  5.02224191250000  3.03626210190000
H  4.51732349100000  1.44236454230000  2.67606958010000
H  5.39808788380000  2.08574002920000  3.73668692650000
H  5.55434592450000  2.62557054440000  0.92644159700000
H  4.66419610970000  3.33488971190000 -0.23372154690000
H -1.45378861950000  3.50547911500000  3.98412176320000
H -0.77806850660000  4.38400241680000  2.89675024910000
45
Energy/monomer =  -0.309006  +-  0.00244121  eV
O  0.67707560170000 -1.00020471860000  1.35797280520000
O -0.80104995250000  1.32942556600000  1.80519019770000
O  2.35404708410000  0.16240167320000 -0.52555858410000
O -0.20631903910000  4.86900771500000  1.28102930100000
O  2.80231896460000  2.75008235670000  4.25474141860000
O  0.77667344680000  2.51265134030000 -0.29780836810000
O  2.36188385450000  5.51760646830000  2.14660657930000
O  1.40459990120000 -1.06801277510000  4.02850968040000
O  0.25722222600000  1.55509933550000  4.53385331390000
O  3.21701687250000  2.98568824530000  1.44261678950000
O -2.58311557570000  3.80131638500000  1.85170473190000
O  0.39075491030000  4.59149490490000  4.25072327180000
O  3.95218454810000 -0.01285173000000  4.51108019720000
O  4.23493739050000  0.47650104970000  1.50886725830000
O -2.14225244300000  3.41410232860000  4.61344358820000
H  0.30327729340000 -1.83995336160000  1.00103562740000
H  0.98444798020000 -0.47067260160000  0.61873773450000
H -0.80762001970000  0.32719874920000  1.67060718510000
H -0.18545894800000  1.49693523350000  2.58733759390000
H  2.92544769790000  0.21620537000000  0.31026012950000
H  2.76527420790000 -0.53407680740000 -1.01518270080000
H -1.10375133580000  4.68257428300000  1.52524893610000
H -0.01405540290000  4.31641682040000  0.50378514360000
H  3.15832064710000  1.87598315080000  4.39155380120000
H  2.88806926610000  2.93379275240000  3.31338465120000
H  0.09396298170000  2.06443206550000  0.26367667340000
H  1.36324903990000  1.88764082550000 -0.74964460440000
H  2.47032754010000  6.42417298500000  2.39002022230000
H  1.44367562290000  5.43460950020000  1.79484377690000
H  0.96929890730000 -0.17639966400000  4.17046110320000
H  1.32410568330000 -1.21509545330000  3.04375265010000
H  0.95839016900000  2.21193023610000  4.59976698330000
H -0.58352809650000  2.05343494170000  4.67421269990000
H  3.22094329810000  3.92139462100000  1.80400062220000
H  2.39209863280000  2.93883190420000  0.87859445760000
H -2.70072877290000  3.94378602840000  2.80478796740000
H -2.21121382110000  2.88372600470000  1.78682369960000
H  0.30228828080000  4.63657885050000  3.27295242730000
H  1.29732470020000  4.26018804650000  4.35600958890000
H  3.14018179540000 -0.59284634800000  4.28238496980000
H  4.36360039410000 -0.32740333550000  5.32841575680000
H  4.29955662940000  0.05725100070000  2.39937509850000
H  4.02422493680000  1.42435997280000  1.68588284680000
H -2.52606494350000  3.52984097810000  5.48062792200000
H -1.23040793200000  3.88542551260000  4.64478528040000
45
Energy/monomer =  -0.323596  +-  0.00183867  eV
O  1.05471990370000 -0.95625308260000  0.85108846310000
O -0.69671662250000  1.32036097920000  1.12449870110000
O  3.05186859480000  0.47172138680000 -0.40813643610000
O  0.14043478340000  5.34953027360000  0.91544537660000
O  1.74910803130000  2.65112459330000  4.21603684600000
O  1.35609661670000  3.07784893420000  0.23270818550000
O  0.95739111570000  6.16391638770000  3.22355602060000
O  1.21643843570000 -0.68598154000000  3.64529274090000
O -0.69144946190000  1.43916058100000  3.80367135870000
O  2.84776886940000  4.31407063260000  2.31973840800000
O -2.03671602950000  3.80309621470000  1.79956975450000
O -0.04256849600000  4.35885625470000  5.24957194980000
O  3.59516766760000  0.49975597760000  4.30649138150000
O  3.91438884850000  1.62624264560000  1.87898562560000
O -2.50147201200000  3.28256913610000  4.89051051370000
H  0.99778947200000 -1.91400308100000  0.59133809870000
H  1.76008712700000 -0.59497964290000  0.32085007200000
H -0.12515924290000  0.58450088560000  0.82299788430000
H -0.63829363140000  1.22898406370000  2.11486751350000
H  3.44670147490000  0.89546379410000  0.40005730870000
H  3.78842752540000  0.31865154830000 -1.00429886630000
H -0.68301347800000  4.90953830750000  1.20434322360000
H  0.70584185520000  4.72875640100000  0.38690353250000
H  2.31101950850000  1.83078811890000  4.40837471800000
H  2.30680312770000  3.23262304300000  3.63740156600000
H  0.74106965670000  2.43219184900000  0.65632638460000
H  1.90215635940000  2.60036828220000 -0.36523956840000
H  1.08820219400000  7.11149884730000  3.31883933300000
H  0.56155203830000  6.00794851200000  2.29338568550000
H  0.51393512330000 -0.04515551370000  3.86081145180000
H  1.10556252070000 -0.82156312130000  2.63689348650000
H  0.05875929990000  2.04328959120000  4.09727876200000
H -1.47459186680000  1.85039518410000  4.14444127470000
H  2.49726815300000  5.15238685720000  2.69525455350000
H  2.19998331960000  3.98418725710000  1.65198737440000
H -2.38811395210000  3.82541934320000  2.72931530300000
H -1.86729311230000  2.79895623280000  1.63495052010000
H  0.15209350820000  5.02532285850000  4.49407777700000
H  0.72910526550000  3.73111137710000  5.13035103980000
H  2.84075703340000 -0.14455627080000  4.11412212770000
H  4.00525438760000  0.09986353980000  5.11034608950000
H  4.02775410700000  1.33974965690000  2.77833177550000
H  3.65712337670000  2.54779994980000  1.78544603210000
H -3.06333631330000  3.06791877490000  5.65905713800000
H -1.61694423580000  3.67169971950000  5.16397039520000
45
Energy/monomer =  -0.321202  +-  0.00211367  eV
O  1.34282768830000 -1.02379954310000  0.11728567690000
O -0.61468904170000  0.93317816820000  0.83656764440000
O  3.50899636370000  0.88078279840000  0.62078654540000
O -0.15325364700000  4.85340011100000  0.86029579190000
O  0.09479239210000  2.02139616490000  4.81730379390000
O  1.45959084080000  2.71050582840000  1.01907865050000
O -0.71246697610000  5.62371083510000  3.43344065400000
O -0.04061216010000 -1.30380832570000  2.82253660380000
O -1.92967820100000  0.64829543920000  3.36961900790000
O  1.92066971240000  3.79661330940000  3.63280227730000
O -2.25088754810000  3.10791898310000  0.45794333460000
O -2.10147277080000  3.70233484490000  4.62663160660000
O  1.75742924870000 -0.29564964420000  4.63986478650000
O  3.61737435020000  1.61266488150000  3.57082991960000
O -3.88368530640000  2.71183534470000  2.71773278700000
H  1.55314498320000 -1.65812146420000 -0.55480176840000
H  2.17572255710000 -0.54933009530000  0.42583074470000
H -0.08030785420000  0.17970761070000  0.57200304860000
H -0.99366082590000  0.71847418170000  1.70780670780000
H  3.47884267880000  1.05156760300000  1.59887394160000
H  4.37273858900000  1.17020263440000  0.33575643930000
H -0.87186269420000  4.24858861260000  0.69118848570000
H  0.65424784170000  4.34217824210000  0.64289066220000
H  0.49308424370000  1.13259177190000  4.85616209680000
H  0.72212828310000  2.63365954720000  4.37312619300000
H  0.73918662270000  2.03175275240000  1.04775364190000
H  2.28063409950000  2.27289739070000  0.71408064490000
H -1.45216223020000  6.10927438410000  3.07072949240000
H -0.26163747080000  5.29783693200000  2.61564014300000
H -0.96350201380000 -1.00508146840000  2.87904877700000
H  0.16163180700000 -1.45993256000000  1.89084313700000
H -1.32763173840000  1.31927070770000  3.84113803730000
H -2.71188382400000  1.26197645790000  3.25278521750000
H  1.79186935550000  4.76341993990000  3.65589848690000
H  1.83015144010000  3.54264799620000  2.66590558230000
H -3.05715600060000  2.88580123320000  0.97976067020000
H -1.67747499780000  2.31900037400000  0.53467623890000
H -1.61251058540000  4.53103334450000  4.33172048450000
H -1.41914225170000  3.17234323740000  5.07691499480000
H  1.16815249960000 -0.62015333770000  3.91375447640000
H  1.81459230790000 -1.07625555850000  5.19174845090000
H  3.06157757080000  0.88602334490000  3.95198921200000
H  3.11311144710000  2.42566551090000  3.75669548860000
H -4.73794068680000  2.97660402530000  3.04240854690000
H -3.21208163430000  3.23827536280000  3.27359775210000
45
Energy/monomer =  -0.295304  +-  0.00288559  eV
O  1.19191345340000 -1.65946481570000  0.86248793980000
O -1.35676494980000 -0.19074846220000  0.22886558000000
O  2.92679066120000  0.18787999260000  2.11543687950000
O -0.95675792990000  3.91112310360000  1.26839353020000
O -2.05884981120000  0.18861826760000  4.64752309510000
O  0.36736938650000  1.37751814240000  1.46345605520000
O -2.14017939730000  4.47777870740000  3.77737461320000
O -0.81005462240000 -2.88499480050000  2.96678587690000
O -3.05806798260000 -1.16499256790000  2.35401793740000
O -0.27839476420000  2.27157992930000  3.95313806610000
O -2.93062330700000  2.11052620760000  0.38388519780000
O -3.65772236370000  2.06679406510000  3.28112032690000
O -0.09033984160000 -1.75514095080000  5.33568006920000
O  1.64226543440000  0.43646957380000  4.54870140860000
O -5.39219554000000  0.37600342200000  1.56878268930000
H  1.79865110300000 -2.17020698930000  0.32801968530000
H  1.73017082330000 -1.00829069370000  1.38775936100000
H -0.61100721870000 -0.84244773520000  0.21814497770000
H -1.85647764740000 -0.44159248280000  1.06909838610000
H  2.69562496610000  0.23726276800000  3.14818251800000
H  3.82763558460000  0.46153737000000  2.00475531280000
H -1.75999585830000  3.70853658860000  0.75410584150000
H -0.43936958420000  3.12139081390000  1.32610016700000
H -1.62509346530000 -0.43647170900000  5.25173425500000
H -1.36001025470000  0.83639790460000  4.36626940420000
H -0.14439732480000  0.87016116180000  0.80569347050000
H  1.26174345080000  0.92464671180000  1.57215774750000
H -2.70884626980000  5.29641204980000  3.75607742020000
H -1.80756041580000  4.45396422730000  2.86787096500000
H -1.70636288320000 -2.72656681270000  2.61461701870000
H -0.23897062550000 -2.72030771490000  2.18977207460000
H -2.69227650540000 -0.88934010640000  3.18683584460000
H -3.91938801370000 -0.64187696330000  2.11212096220000
H -0.80931630240000  3.08333290490000  3.95916185140000
H -0.15407571150000  1.98132495780000  2.97757992530000
H -3.00415748850000  2.06688649300000  1.40140302180000
H -2.25823810800000  1.41592405290000  0.27379891820000
H -3.32464244630000  2.90360744860000  3.64750163480000
H -3.12287122750000  1.35244224360000  3.76540794490000
H -0.48001790010000 -2.11075229540000  4.48874811920000
H  0.53688284480000 -2.42777921290000  5.59767617960000
H  1.07183021780000 -0.37130952370000  4.75069780210000
H  1.00598455400000  1.19471611320000  4.43418667070000
H -5.25052707690000  0.77851773160000  0.71113467750000
H -5.03240020080000  1.06800247650000  2.12177586280000
45
Energy/monomer =  -0.281851  +-  0.00313326  eV
O  0.44269534990000 -0.68533854600000  0.92988215410000
O -1.93922156470000  0.46040811830000  0.56102107570000
O  2.06852685240000  1.04349376770000  1.96846483130000
O -1.88627801490000  4.86979442710000  2.00356868530000
O -2.74914861280000  0.64124504610000  5.41134334860000
O -0.17182604670000  2.56819917510000  1.81355854070000
O -1.91463420170000  4.87976421530000  4.66074901320000
O -1.17191178300000 -1.88864711150000  2.81009833910000
O -3.52770784620000 -0.29572957600000  2.95271236210000
O -0.66932305260000  2.43294122380000  4.54273016890000
O -3.52422914800000  2.83563368930000  0.67420471590000
O -4.12852880380000  2.98922923720000  4.70669549600000
O -0.75198691670000 -1.42796265890000  5.39334725490000
O  1.22562317680000  0.38336808610000  4.34954566860000
O -5.23625060660000  1.71259800290000  2.69144178960000
H  0.61323768890000 -1.19802448800000  0.12970161500000
H  1.34386131930000 -0.15411515090000  1.24636788460000
H -0.99129440330000  0.26419970140000  0.70689784760000
H -2.46008385720000  0.00551240860000  1.24122879630000
H  2.07464080300000  0.80347191710000  2.93348270340000
H  2.75253017060000  1.67128466650000  1.73902284260000
H -2.60798080900000  4.22471014050000  1.69830619890000
H -1.06049920940000  4.40378311500000  1.72744213550000
H -2.18338541700000 -0.14303714000000  5.81035951560000
H -2.11696601230000  1.26074207390000  5.01440827590000
H -0.91110714820000  2.05089154730000  1.43466451100000
H  0.62652020690000  1.93133275610000  1.90065627070000
H -1.20016426500000  5.48091372460000  4.90349855040000
H -2.04624103980000  4.99006536450000  3.66992871750000
H -2.08144934680000 -1.45516016110000  2.71652284510000
H -0.59721041600000 -1.34459098340000  2.24084115680000
H -3.14190150320000 -0.09002801450000  3.84579055880000
H -4.23153916770000  0.37947964270000  2.74890792740000
H -0.84140749130000  3.38782433350000  4.79211362510000
H -0.55972491030000  2.51276641790000  3.54041591890000
H -4.16059988610000  2.28445375970000  1.22762788900000
H -2.81300242560000  2.20936799800000  0.32639147280000
H -3.60050691570000  3.75730811180000  5.04847019490000
H -3.88223715720000  2.23102175810000  5.25629086410000
H -0.89447715820000 -1.61797332660000  4.38242216010000
H -0.32705299660000 -2.21000199910000  5.72979821160000
H  0.81237734500000 -0.44274976620000  4.66082406280000
H  0.67139551830000  1.10328733930000  4.82791670430000
H -6.18856785180000  1.87217208010000  2.55209641560000
H -4.94848724960000  2.27341272910000  3.47253253810000
45
Energy/monomer =  -0.323975  +-  0.00216257  eV
O  0.81717959380000 -0.83949796850000  0.84502030700000
O -1.70349568060000  0.08539899710000  0.71034579680000
O  1.86829501160000  1.31485662400000  2.27654579040000
O -3.21833397220000  3.52431139720000  2.08887832000000
O -2.20229197990000 -0.24920455500000  5.73052346740000
O -0.70091108530000  2.44065985450000  2.02310837330000
O -3.76341371700000  3.23853865910000  4.75246540900000
O -0.42399146450000 -2.59899282960000  3.03040019350000
O -2.85303852400000 -1.07641637220000  3.06621936000000
O -1.21326526820000  2.23752581970000  4.79236675230000
O -4.14899977890000  1.48061972420000  0.60802674020000
O -4.61708369440000  0.66373273210000  4.85463599710000
O  0.27347892880000 -1.82268799330000  5.41880480400000
O  1.14380905770000  0.76053423630000  4.79750351010000
O -5.65062984240000 -0.42967671910000  2.65299445290000
H  1.48133749410000 -1.51280474800000  0.66777160640000
H  1.29592522160000 -0.13203920870000  1.42414159820000
H -0.82859542570000 -0.39190392480000  0.65152596980000
H -2.04560734520000 -0.14498113170000  1.60389926890000
H  1.68103540940000  1.05655490870000  3.25009171230000
H  2.75740462800000  1.71052751000000  2.27732024790000
H -3.61918103330000  2.89754532590000  1.48451633250000
H -2.29796722500000  3.45348862680000  1.89207295250000
H -1.46231847830000 -0.83169183330000  5.95604417100000
H -1.79900193720000  0.57596082080000  5.41687201230000
H -1.05596064700000  1.79115630310000  1.38722254550000
H  0.25194501590000  2.23104648150000  2.10663480640000
H -4.31269225710000  4.00508685750000  4.93130975050000
H -3.56546327640000  3.37329601320000  3.74851688320000
H -1.35471882860000 -2.20042908460000  3.06674822890000
H -0.07743171210000 -2.35915483580000  2.17221542980000
H -2.64385505620000 -0.75225923150000  3.93553622490000
H -3.80563058840000 -0.92765989510000  2.95219551950000
H -2.12275675770000  2.51048736860000  5.06692289310000
H -1.16607995070000  2.31219412620000  3.80922130990000
H -4.74562555030000  0.92912033090000  1.12910589460000
H -3.29315156910000  0.95305951070000  0.46913287360000
H -4.40045710220000  1.59079438670000  4.66761854780000
H -3.92722181870000  0.40749020540000  5.51069070420000
H  0.10347081820000 -2.13906837760000  4.41778539230000
H  0.88679154440000 -2.39643198170000  5.85122887330000
H  0.80874847750000 -0.13430435950000  5.02657222880000
H  0.43553120650000  1.41754205450000  5.13625444580000
H -6.56714466230000 -0.74586611660000  2.68294636430000
H -5.44489331050000  0.10666425930000  3.50465186680000
45
Energy/monomer =  -0.308863  +-  0.00259872  eV
O  0.85155767420000 -0.58998305440000 -0.40526578760000
O -1.91959848030000  0.00769709750000 -0.32012939510000
O  1.10272576360000  1.90538210370000  0.79393875710000
O -4.65869902740000  3.72393082140000  0.43625145970000
O -2.74596451520000 -0.55875966050000  3.95127478300000
O -1.80530495730000  2.46501562190000  0.83766545660000
O -4.74281091330000  3.04992544600000  3.20718630270000
O -0.36604861960000 -2.02372855460000  1.81074054640000
O -3.26981499950000 -1.61147515580000  1.38693583670000
O -2.18949745010000  2.16733815770000  3.48461522170000
O -4.53403570690000  1.13299739760000 -0.21385206980000
O -5.44018904450000  0.41636700980000  3.25500224640000
O -0.09864089490000 -1.14042497460000  4.50692680930000
O  0.50485635790000  1.53680622920000  3.33844444190000
O -6.07628199770000 -1.02179639120000  1.06540326500000
H  1.76776260990000 -0.94794269370000 -0.48160550880000
H  0.79214520700000  0.25351979370000  0.11888521600000
H -1.09996826880000 -0.34505773500000 -0.64255683860000
H -2.36315002440000 -0.63353580010000  0.28041536530000
H  0.86158060790000  1.84972397240000  1.76266395820000
H  1.67670642230000  2.65005327140000  0.75492040020000
H -4.75901385170000  2.71670598640000  0.17000052040000
H -3.67740021460000  3.76190450030000  0.44498217390000
H -1.81213232690000 -0.76588373540000  4.19173849250000
H -2.64031794100000  0.36074879870000  3.61900886210000
H -2.10717353350000  1.67715028900000  0.32974964490000
H -0.83413282170000  2.40995212170000  0.64936326200000
H -5.39954108210000  3.56876437850000  3.68951151390000
H -4.70568439170000  3.49140196430000  2.31622260030000
H -1.31895876070000 -1.89295191640000  1.64382833670000
H  0.07178135780000 -1.53222312870000  1.07086646360000
H -3.13927625530000 -1.29330527040000  2.29069492420000
H -4.26057574980000 -1.54024886320000  1.20721932480000
H -3.03190820070000  2.62666137700000  3.74727190500000
H -2.19001659180000  2.36176330950000  2.50667828020000
H -5.05043940800000  0.47630170590000  0.31336149510000
H -3.64941010500000  0.77821673180000 -0.38975178750000
H -5.30119695580000  1.43002260660000  3.28838604290000
H -4.57070003380000  0.07142715290000  3.49628120150000
H  0.06228850960000 -1.65181994730000  3.61927144210000
H -0.03200812190000 -1.89225882580000  5.16218010700000
H  0.55855712690000  0.76888651130000  3.92243960920000
H -0.33086428860000  1.93492412620000  3.53863595560000
H -7.00191958840000 -0.95238214950000  0.80687466730000
H -6.03083265440000 -0.60358378690000  1.91255333410000
45
Energy/monomer =  -0.319033  +-  0.00308885  eV
O -0.08404350470000 -1.79372479190000  1.22317395560000
O -2.58566736090000 -0.63611381270000 -0.42866108450000
O  0.81179178900000  0.72374256820000  2.04933258730000
O -3.77911633280000  3.36939964700000  0.22602977830000
O -4.31164796490000  0.67770990280000  4.17214119020000
O -1.53410191880000  1.84638502330000  0.38757671890000
O -4.70780511240000  4.48894034590000  2.51983188820000
O -1.80101310590000 -1.97645165810000  3.39107686520000
O -4.15979666640000 -0.99709886190000  1.81881448590000
O -2.74949163870000  2.54257240790000  2.90870281220000
O -4.45779261020000  1.09182803610000 -1.39983679630000
O -6.43296055220000  1.97897893830000  2.99451905600000
O -1.98903756040000 -0.46740619480000  5.50749085530000
O -0.46613883690000  1.51341491170000  4.23203060450000
O -6.41741140120000  0.42266130180000  0.71269186420000
H  0.48264363710000 -2.47256819130000  0.82766413710000
H  0.45161042300000 -0.91374545260000  1.39077414610000
H -1.77662826570000 -1.11505202180000 -0.14989363290000
H -3.22390152120000 -0.91122369840000  0.26574716860000
H  0.47035913330000  1.01565558440000  2.93595941220000
H  1.58619353070000  1.28690338400000  1.95406783010000
H -4.25056389980000  2.71637670190000 -0.34552520850000
H -2.84571086200000  3.09025170470000  0.14900738210000
H -3.69763229900000  0.19264289240000  4.81863140200000
H -3.69383859740000  1.37446940060000  3.83019719030000
H -1.95989370110000  1.18097210770000 -0.17063409220000
H -0.73791424790000  1.51939771670000  0.78102935130000
H -4.51441132060000  5.40190868490000  2.54150948710000
H -4.42147049390000  4.18239321770000  1.57592485930000
H -2.70700327230000 -1.82962916550000  2.92779260960000
H -1.08490690300000 -1.89010413610000  2.69659976750000
H -4.11989774950000 -0.19940159950000  2.48615579980000
H -5.04019653000000 -0.85687442600000  1.43670116250000
H -3.36249912810000  3.31624156260000  2.98152410080000
H -2.65016992410000  2.33778274690000  1.97335027330000
H -5.34112279970000  0.63551317330000 -1.28005252500000
H -3.81441810800000  0.36131172810000 -1.26455135700000
H -5.96369591320000  2.81774169610000  2.99965285730000
H -5.87080518900000  1.46022091330000  3.64484093520000
H -1.87639944260000 -1.17594448780000  4.75617395140000
H -1.63222394410000 -0.88338875930000  6.29014194950000
H -0.94536060020000  0.94619044100000  4.87952239050000
H -1.14985301240000  1.94948587640000  3.67751718450000
H -7.32729107230000  0.25839629010000  0.56537192670000
H -6.36164868930000  1.15664383780000  1.34377110970000
45
Energy/monomer =  -0.311267  +-  0.00310691  eV
O  1.08433385810000 -0.91688231100000  1.12472566410000
O -1.52611127800000 -0.03438209380000 -0.22597526180000
O  2.00008360860000  1.32303618250000  2.44296800610000
O -2.99430427930000  3.36395877210000  1.14337937330000
O -2.67832200540000  0.11873336200000  4.33882466720000
O -0.59927216050000  2.19435016400000  1.68207767780000
O -4.17698734610000  3.46121304150000  3.49017455250000
O -0.58550865880000 -2.04396990200000  2.96482570760000
O -3.01635656510000 -1.00192260940000  1.85924606390000
O -1.38164544940000  2.74459651650000  4.23905265390000
O -3.64590551040000  1.45304730160000 -0.84440168450000
O -5.40718768430000  0.59003586260000  3.45971830150000
O -0.57096080240000 -1.06709670200000  5.61910242920000
O  0.72173523290000  0.99345110780000  4.66164399610000
O -5.50350779970000  0.11115980200000  0.92115566110000
H  1.87455664590000 -1.25103710640000  0.67500066870000
H  1.47833246790000 -0.13287621350000  1.59521214730000
H -0.63546986000000 -0.37431279870000  0.07261506290000
H -2.26552695840000 -0.36487281780000  0.36502900070000
H  1.56595186390000  1.31239321530000  3.33219201980000
H  2.88033099580000  1.53865493790000  2.68852339480000
H -3.22195745180000  2.95022569340000  0.24186607500000
H -2.02607003370000  3.38067094020000  1.22603580010000
H -2.11410955450000 -0.28255751970000  4.98740436750000
H -2.21881377810000  1.00584938540000  4.20943372560000
H -1.00413063360000  1.58027297590000  1.03867494800000
H  0.37840262590000  2.08802662870000  1.82157311130000
H -4.39752151720000  4.41725842200000  3.56706623010000
H -3.81159640980000  3.44067799350000  2.55559391000000
H -1.38991132420000 -1.90589326250000  2.41701760470000
H  0.15533264500000 -1.80961254410000  2.35033170070000
H -2.77594330980000 -0.53615979740000  2.69227983150000
H -3.92359469210000 -0.76615588930000  1.66266483430000
H -2.25972704280000  3.24741839000000  4.33223696060000
H -1.18450586930000  2.65852218400000  3.29734643580000
H -4.29808781670000  0.88251459610000 -0.41632286740000
H -2.79699176560000  1.02742241850000 -0.71649759070000
H -5.21229314650000  1.58555568360000  3.49819057990000
H -4.62932408490000  0.17848574420000  3.88292859250000
H -0.52131232140000 -1.45914685170000  4.68980870710000
H -0.76264963620000 -1.83428916240000  6.14175414120000
H  0.42781446910000  0.18556398080000  5.17459045820000
H -0.02216434060000  1.62375340030000  4.75247058230000
H -6.33081522870000 -0.08842823720000  0.50592588350000
H -5.72440638270000  0.30087859980000  1.87864267280000
45
Energy/monomer =  -0.332587  +-  0.00266007  eV
O  2.07993623890000  0.44933899570000  1.42389783080000
O -0.67203335040000  0.68826349270000  1.75096318460000
O  2.76002972550000  2.26822681510000  3.50525546450000
O -2.66457117560000  3.75935700070000  4.15402010680000
O -1.04253143890000 -1.10675704480000  6.39904776030000
O -0.19521118350000  2.83737235940000  3.41692619870000
O -3.63945352900000  2.64894611320000  6.40695407020000
O  1.13406165640000 -1.97556726980000  3.35239228890000
O -1.62539298570000 -1.19344882070000  3.62241804330000
O -0.79286413560000  1.56427388900000  5.84426786830000
O -3.04040429880000  1.71715452340000  2.41259155710000
O -3.64343937340000 -0.27561279040000  6.30816501940000
O  1.73821250260000 -1.79539956120000  5.90832163460000
O  1.97119186120000  0.99202511910000  5.74878242190000
O -4.22169189980000 -0.55641135980000  3.61420264320000
H  2.32965796980000  0.77746354510000  0.58476304910000
H  2.52066679150000  0.99716828290000  2.12233851210000
H  0.30537351940000  0.61806962680000  1.62132395410000
H -0.94392719620000 -0.02554607970000  2.39273540650000
H  2.68414624720000  1.74797955290000  4.37134314110000
H  3.34417166410000  3.01054225770000  3.59207500800000
H -2.93117095790000  2.94674888290000  3.65051431970000
H -1.74969211570000  4.05857039680000  3.87375064880000
H -0.19716240330000 -1.58879678290000  6.47696447000000
H -0.83032399550000 -0.20414901180000  6.11094391500000
H -0.54274933500000  2.17249915500000  2.76121924670000
H  0.74152163140000  2.78142799960000  3.40541335870000
H -4.36511470490000  3.15389270550000  6.77531861080000
H -3.29944053930000  3.21933455920000  5.65703170610000
H  0.16311917630000 -1.92536815710000  3.57022066450000
H  1.30961641030000 -1.45991557490000  2.55382734200000
H -1.65126299780000 -1.14754186840000  4.61496754000000
H -2.57943861560000 -1.04166802320000  3.42582691390000
H -1.60732245120000  2.07427709260000  6.15585478820000
H -0.61209039340000  1.94644310860000  4.94510173110000
H -3.46983739660000  0.90791061560000  2.77938200010000
H -2.34040317970000  1.36521344870000  1.84737332780000
H -3.67605360680000  0.65057412330000  6.62324282150000
H -2.86980780450000 -0.65498691670000  6.69999135920000
H  1.55712599560000 -1.88192486760000  4.93778799300000
H  2.02380504260000 -2.64730734980000  6.24864511520000
H  1.96709741450000  0.04631050120000  5.92370338620000
H  1.06341934420000  1.32187445520000  5.89658407660000
H -5.15854460730000 -0.72457643200000  3.38559616830000
H -4.13838267730000 -0.43478346670000  4.55978287060000
45
Energy/monomer =  -0.346782  +-  0.00236258  eV
O  0.25495121760000 -0.22870437720000 -0.25390317880000
O -2.06764629040000  0.54658275770000  0.92542114600000
O  1.88966034010000  0.78954612500000  1.67609895740000
O -2.39612774750000  2.87668213590000  4.85866142300000
O -1.12882164840000 -1.78153677330000  5.06921041400000
O -0.46287954760000  1.95388351230000  3.14682379900000
O -2.04016059270000  1.68942993090000  7.12141029340000
O -0.09019123060000 -2.42629372760000  1.27017675070000
O -2.37168636570000 -1.75041031340000  2.60611208630000
O  0.04175577320000  0.63734905160000  5.75549235700000
O -3.84655159330000  2.18845835610000  2.48466682430000
O -3.53212265040000 -0.61084065620000  6.20946053560000
O  0.96077083450000 -3.02990436550000  3.67451828490000
O  2.17183519020000 -0.44062855430000  4.20876272360000
O -4.52014690330000 -0.23137701550000  3.61548677980000
H  0.68139026640000 -0.19785169710000 -1.12595292640000
H  0.86296998550000  0.28534356090000  0.32436493650000
H -1.28144755370000  0.36081204200000  0.37696817370000
H -2.18052858020000 -0.23994763080000  1.54961984370000
H  2.01267506970000  0.22046070890000  2.43898360820000
H  2.65733498230000  1.32150121980000  1.69686174740000
H -3.14446921980000  2.87995558090000  4.24025005900000
H -1.68452762770000  2.76101313240000  4.26196387540000
H -0.35742047660000 -2.37904827670000  5.05150855060000
H -0.79575259860000 -0.90235090130000  5.32771696150000
H -1.01600330840000  1.68747860160000  2.38708350340000
H  0.44727787200000  1.76055688370000  2.84422157720000
H -1.86270394880000  2.38703016050000  7.74159618490000
H -2.14408693000000  2.10449165830000  6.22514964520000