27
Energy/monomer =  -0.292223  +-  0.00272368  eV
O -1.09072330170000 -0.82521991150000 -0.92846074150000
O -0.15308470830000  2.56136169490000  0.87587884020000
O -0.67566736090000  1.52598628230000 -2.20164635940000
O -2.13942409830000  0.55318358960000  1.18509884130000
O -1.92888221020000  4.76264399200000  0.83546282660000
O -3.65956269420000  2.67021416690000 -0.11048272000000
O  1.11609233530000  4.12965128700000 -1.32113573600000
O -2.97217829170000  3.20056123410000 -2.62917866360000
O -1.28051027890000  5.21166449560000 -1.81136207950000
H -1.47361380640000 -1.31806041560000 -1.68986362960000
H -0.86865843180000  0.06961877810000 -1.26698149520000
H -0.71629330040000  3.35999921850000  0.84710177740000
H -0.83918379860000  1.85727522500000  1.08045301580000
H -0.35719482620000  2.19472572110000 -1.56121401980000
H -1.46230595660000  2.01908913230000 -2.55542035340000
H -1.85161957760000 -0.17301659580000  0.59438124320000
H -2.65031459310000  0.17548336980000  1.88332460940000
H -1.66407056140000  4.99921133970000 -0.10464684370000
H -2.14836429810000  5.51601735570000  1.33375533810000
H -3.15315815440000  1.90881782190000  0.26405629650000
H -3.28149101920000  3.49995852770000  0.28312916290000
H  1.58094595560000  4.95713530170000 -1.08156729040000
H  0.96492665820000  3.67615450420000 -0.48093889180000
H -3.34483116140000  2.99504802860000 -1.72815061680000
H -3.75675183240000  3.15016632060000 -3.21421802040000
H -0.40454342650000  4.80320722590000 -1.91643125540000
H -1.84292192180000  4.66558838650000 -2.42453138310000
27
Energy/monomer =  -0.306846  +-  0.0029365  eV
O  1.17585043620000  0.03104540430000 -0.74888017950000
O -1.02999510150000  1.87172768050000  1.67531707250000
O  0.15159410440000  2.53471871560000 -1.40067846300000
O -1.26960228020000 -0.63825082930000  0.37686869930000
O -3.85964289920000  2.57234307660000  1.34762379550000
O -3.25624674500000  0.86883358220000 -0.68861544580000
O  0.07666500120000  4.21601429150000  1.09608001280000
O -2.61532956950000  3.38688152250000 -1.75577742270000
O -2.67163515450000  4.88768540440000  0.62454960270000
H  2.05192857630000 -0.04557626090000 -1.14974150730000
H  0.77990478670000  0.83356701760000 -1.13909916200000
H -1.96030743980000  1.92944326850000  1.91441071490000
H -0.91070842000000  1.10572965300000  1.05675410330000
H  0.50256857970000  3.15503497340000 -0.67903188830000
H -0.70836221240000  2.87255850440000 -1.65205723490000
H -0.37515169750000 -0.75814200370000  0.00510180120000
H -1.43416660850000 -1.40730801830000  0.90909086580000
H -3.41938293070000  3.45721291710000  1.11991147450000
H -4.77331225910000  2.79582676240000  1.49231050340000
H -2.57416739290000  0.20229418620000 -0.45461750710000
H -3.65142013140000  1.15654020690000  0.15088581620000
H  0.70396345570000  4.42066371160000  1.77853041960000
H -0.33337332990000  3.37451841290000  1.43224949530000
H -2.87358653100000  2.51233861440000 -1.22680125210000
H -3.23317914550000  3.39204916860000 -2.49923944720000
H -1.75356074410000  4.96902049210000  0.95064198410000
H -2.53711325710000  4.64823357330000 -0.31726924680000
27
Energy/monomer =  -0.297244  +-  0.00334786  eV
O  0.75415013780000 -1.16195404710000 -1.55503940710000
O  0.29026141770000  0.70892625570000  1.98319579570000
O  0.36681658230000  1.54071818840000 -1.99689224180000
O  0.27591008340000 -1.90330489980000  1.01298784830000
O -2.46064955650000  0.74561377190000  3.08377364370000
O -2.47069669660000 -1.24409995550000  0.81890971980000
O  0.64058673100000  2.91719267630000  0.38705039010000
O -2.29403846410000  0.59857168110000 -1.27027194690000
O -2.13421253400000  2.49403885900000  1.01215305810000
H  0.91078149360000 -1.50017952210000 -2.45647462200000
H  0.68245358730000 -0.14766878100000 -1.60651574590000
H -0.54515233730000  0.74607370500000  2.51160719610000
H  0.34577559490000 -0.18256967070000  1.55382988500000
H  0.49006047660000  2.30607119000000 -1.39451361870000
H -0.55535773450000  1.21230321800000 -2.00068504490000
H  0.46883667630000 -1.83699148400000  0.03258883460000
H  0.90384304270000 -2.66963263630000  1.24988840840000
H -2.43781780480000  1.38368173290000  2.31899816510000
H -3.17848942830000  1.17972001600000  3.56693463880000
H -1.58911657190000 -1.62615630300000  0.78388969380000
H -2.57437412820000 -0.92044061890000  1.71141167300000
H  1.47707651820000  3.35472471090000  0.65276093810000
H  0.54647269750000  2.15902840480000  0.98912714650000
H -2.40048621250000 -0.11712570250000 -0.61472114380000
H -3.19784985580000  0.66563467950000 -1.61980831380000
H -1.27141233070000  2.90951022350000  0.96838643400000
H -2.15388913860000  2.01414331310000  0.16090064470000
27
Energy/monomer =  -0.286701  +-  0.00323155  eV
O  0.46327826900000  0.91245840510000 -2.31379946540000
O -1.41836012860000  0.55349797380000  1.97299192920000
O  0.55593790740000  3.38436468690000 -1.07954515110000
O -1.58666084200000 -0.08908899330000 -0.98696618470000
O -3.62929511920000  1.94533299380000  2.61377044550000
O -3.50665582680000  2.15378075420000 -0.39732797700000
O  0.64029102320000  2.31116787590000  1.89882590410000
O -2.06899272740000  4.50559464060000 -0.76146267160000
O -1.63342866540000  3.73223519660000  2.15148217860000
H  1.32906665320000  0.84753985840000 -2.77589332990000
H  0.53343820850000  1.74188893290000 -1.78643451620000
H -2.24774628030000  0.99881559740000  2.26516199320000
H -1.56691474300000  0.27924486680000  1.01367054040000
H  0.62857979880000  3.18461745550000 -0.16755725860000
H -0.23811070980000  3.96370629170000 -1.05306206090000
H -0.77966173590000  0.15796927170000 -1.42367678820000
H -1.44609345370000 -1.02580332430000 -0.88541098460000
H -3.00665191230000  2.76297956400000  2.56171346070000
H -4.09099099490000  2.08024603140000  3.50190924610000
H -3.08468301650000  1.45244248930000 -0.93779015620000
H -3.49996942560000  1.73695529990000  0.49972229610000
H  1.06494000260000  2.28515834350000  2.74226973290000
H -0.05182828220000  1.61143043900000  1.89973302550000
H -2.64964347500000  3.69599170080000 -0.68378269980000
H -2.60082603430000  5.11968312620000 -1.30545575680000
H -0.68672615020000  3.42914446430000  2.09081040660000
H -1.72478816740000  4.39925685760000  1.45315678740000
27
Energy/monomer =  -0.281062  +-  0.00289189  eV
O  1.25228786900000  1.28106559190000 -1.61577154550000
O -0.28611162350000  0.77298515690000  2.37802382010000
O  0.33283323950000  3.65992323200000 -0.65067886590000
O -1.24723031380000  0.50061808330000 -0.30514766310000
O -2.61325176270000  2.41607100150000  3.11248003130000
O -3.22654486560000  2.30711000850000  0.50063867730000
O  0.96723525420000  3.30186367800000  2.07058883470000
O -2.34022852080000  4.52345459820000 -0.77619195890000
O -1.34371712660000  4.59164507860000  2.17377594890000
H  1.62537467600000  1.38974538040000 -2.51822981260000
H  1.11016728870000  2.19254286990000 -1.31020592280000
H -1.14553888800000  1.14827894290000  2.60732805490000
H -0.52523162660000  0.35198344850000  1.52280026080000
H  0.52294305140000  3.87416270070000  0.32677118520000
H -0.55928017870000  4.11973319010000 -0.86269473750000
H -0.48080276960000  0.95841763530000 -0.70903609680000
H -1.38124814500000 -0.24627570770000 -0.91977376970000
H -2.27772774180000  3.28427960060000  2.87725838690000
H -3.35643473820000  2.48194054090000  3.69522060060000
H -2.64338048340000  1.56125404540000  0.22174621360000
H -3.16744300270000  2.38965737800000  1.49069858190000
H  1.91908022150000  3.24339568780000  2.35800895160000
H  0.68692238720000  2.34954980800000  2.13643507680000
H -2.73018551490000  3.70982487430000 -0.34776209090000
H -2.95576419900000  5.22914497340000 -0.59317321100000
H -0.45982610880000  4.27411328070000  2.08675098540000
H -1.67831336130000  4.84716136240000  1.25849419880000
27
Energy/monomer =  -0.284057  +-  0.00249003  eV
O  0.34184258520000  0.31328042160000 -1.50585867220000
O -1.34526117030000  0.89523185990000  1.92957838380000
O  0.70520498710000  3.03629359290000 -1.05133874010000
O -0.70515651530000 -1.39877238400000  0.36227423680000
O -4.17945676620000  1.63703462310000  0.77773974940000
O -2.44342817550000  1.18728080260000 -1.49186293190000
O  0.17917387630000  2.94836025520000  1.62621959950000
O -1.90144845990000  3.81175798370000 -2.18678865560000
O -2.34603170500000  3.72225704810000  0.44710813780000
H  0.78679828780000  0.17404053690000 -2.36666832280000
H  0.59370569930000  1.27144708180000 -1.30889113200000
H -2.31599605490000  1.09769263880000  1.93417215480000
H -1.27305556310000 -0.01225264210000  1.46973935600000
H  0.65232175340000  3.20874711440000 -0.08433417080000
H -0.01832377700000  3.55908817310000 -1.48931300870000
H -0.03376112020000 -1.04021743620000 -0.26286529610000
H -0.25820249880000 -1.91583909430000  1.02893495680000
H -3.64180995440000  2.47253296650000  0.59147190070000
H -4.92368764240000  1.61386543670000  0.09195901950000
H -1.63156793950000  0.61123838260000 -1.46679189570000
H -2.98595217180000  0.90300651690000 -0.74056125340000
H  0.53262229000000  3.12931840850000  2.49226186910000
H -0.43717070360000  2.16263843290000  1.70506671300000
H -2.15075711510000  2.88973212600000 -1.97460592780000
H -2.33226914630000  3.92059059500000 -3.06308205160000
H -1.47105797150000  3.49996379790000  0.75872584980000
H -2.32346832170000  3.97386757000000 -0.46589876030000
27
Energy/monomer =  -0.295794  +-  0.00351806  eV
O  1.06551483580000 -0.31391427670000 -1.47261249100000
O -0.68262701990000  0.54886920470000  1.25321393770000
O  0.28447526180000  2.17678545270000 -2.39598297390000
O -0.97751861360000 -1.71492084800000 -0.45351271110000
O -3.44026348760000  1.30434841750000  1.43455345540000
O -3.09318771290000  0.18282713940000 -1.12854283220000
O  0.37827388730000  3.04753900610000  0.57066226820000
O -2.52978844530000  2.16983764820000 -2.77900615910000
O -2.62821984830000  3.63120383680000  0.17664466210000
H  1.64501001990000 -0.75209708820000 -2.13006962800000
H  0.89539740770000  0.54696544850000 -1.91783743630000
H -1.63413666650000  0.51030277160000  1.54615095340000
H -0.56878071440000 -0.24921167230000  0.70837772330000
H  0.54126170630000  2.50822508160000 -1.54245817820000
H -0.69296903110000  2.14951587040000 -2.48099376670000
H -0.17642587540000 -1.44096024520000 -0.99934616350000
H -0.75843420630000 -2.65066199240000 -0.26376274170000
H -3.35882779960000  2.13651976160000  0.92902986960000
H -4.12383315210000  1.39580454240000  2.09933292370000
H -2.42225985910000 -0.53901263760000 -1.07618470660000
H -3.42466948340000  0.27899198220000 -0.19217490250000
H  1.23985675450000  3.14015392780000  0.97129013470000
H  0.05063168820000  2.16039537150000  0.92131261590000
H -2.87343830210000  1.36413260150000 -2.27845372230000
H -2.61453030260000  1.98719592520000 -3.74998466860000
H -1.66005579820000  3.67140690870000  0.17941649080000
H -2.80139214430000  3.46028429980000 -0.74670977410000
27
Energy/monomer =  -0.27102  +-  0.00277201  eV
O  1.61210891820000 -0.98516658620000 -1.33173723800000
O  0.31378022720000  2.00264786250000  1.54496886390000
O  2.36564864000000  1.36497757700000 -2.50519393780000
O  1.68610439910000 -0.38987499680000  1.30168716320000
O -2.23312837600000  1.73378218410000  0.41301120620000
O -1.14222493250000 -0.46002576790000 -1.27949534310000
O  1.73354719790000  3.17368255530000 -0.28882461370000
O -0.67662835110000  1.10364591310000 -3.45774228310000
O -0.82378315570000  3.26399413970000 -1.55762948760000
H  1.61936414560000 -1.55241809190000 -2.11457808330000
H  1.85746450310000 -0.06086443230000 -1.67865169990000
H -0.54682859660000  1.70323477650000  1.30133707810000
H  0.72838333760000  1.06111741660000  1.77865734700000
H  2.32691099050000  2.08928706300000 -1.86291355250000
H  1.57247205520000  1.42514949390000 -3.03250228130000
H  1.66993700550000 -0.76753697720000  0.36304628610000
H  2.56340078990000 -0.57479723410000  1.63871424570000
H -1.81404167990000  2.26995197050000 -0.33057778190000
H -2.97648558920000  2.28017204810000  0.61259396560000
H -0.30914206420000 -0.91543238370000 -1.01728606850000
H -1.42635194950000  0.04320227580000 -0.51348530970000
H  1.94369366530000  4.02131614360000  0.08214113670000
H  1.30343441500000  2.65963662620000  0.44573164820000
H -0.74739901840000  0.45173279080000 -2.74042171410000
H -1.58348066650000  0.90335194700000 -3.90059608110000
H  0.12534936300000  3.25436412950000 -1.19549147080000
H -0.76327454430000  2.81602382760000 -2.40894597600000
27
Energy/monomer =  -0.284456  +-  0.0035327  eV
O  1.71547306470000 -2.02514685510000  2.70132666770000
O -1.04156509330000  0.61838522950000  1.65972349180000
O  2.21270481590000 -0.71155234600000  0.38720041450000
O -0.99757750080000 -2.16641357530000  2.54098929770000
O -3.07692008580000  0.22264569540000 -0.08880648680000
O -2.03451144670000 -2.26603155820000 -0.03823958670000
O  1.05974212480000  1.76270401850000  0.42842267990000
O  0.19693203910000 -1.97649840470000 -1.37239131420000
O -0.91351142480000  0.58199046790000 -1.52262361680000
H  2.38035633090000 -2.68583095740000  2.75875273180000
H  1.93240182130000 -1.52731713900000  1.82779648230000
H -1.74154264660000  0.32858200220000  1.02257917270000
H -0.97379354070000 -0.18550762960000  2.29810792940000
H  2.10150251650000  0.26117631560000  0.47803580870000
H  1.45139917490000 -1.01232390900000 -0.14836693850000
H -0.01118708860000 -2.23991714290000  2.58264926060000
H -1.36169871000000 -2.27361350250000  3.42912458000000
H -2.30770255940000  0.50549840440000 -0.62356696320000
H -3.69051818820000  0.96225036560000  0.04799414360000
H -1.69002276180000 -2.43205098590000  0.86902945610000
H -2.61779187740000 -1.46705625410000 -0.02192878240000
H  1.31759524640000  2.65844173060000  0.62076477860000
H  0.23124244720000  1.51611897950000  0.96421113430000
H -0.69953016100000 -1.95384909850000 -0.85123603900000
H  0.34016501980000 -2.94398182010000 -1.51233541030000
H -0.20304523270000  1.11357734650000 -1.10177723850000
H -0.60371354390000 -0.31072769710000 -1.75718791560000
27
Energy/monomer =  -0.279511  +-  0.00372631  eV
O  1.67290851120000 -0.41843274580000  1.14748898590000
O -1.09477919210000  0.65338094330000  0.60115087360000
O  2.81711398560000  1.43887128920000 -0.54972547400000
O  1.42063914420000 -2.87781049730000  2.25993444130000
O -1.94357810370000 -1.30094526380000 -1.16024839320000
O  0.52409535920000 -2.59158345440000 -0.18096186580000
O  0.19986912410000  1.98329600430000 -1.23550108970000
O  1.87135520240000 -1.87197808950000 -2.48775700460000
O -0.41711537520000 -0.28589729780000 -2.86425388400000
H  1.21612243560000 -0.99555608410000  0.45200940230000
H  2.06950250980000  0.29618050950000  0.67929226740000
H -1.66553208940000 -0.13200162870000  0.29855420780000
H -0.32881238060000  0.18261678040000  1.07953758200000
H  1.89926064880000  1.65059183160000 -0.92067899230000
H  3.10034071020000  0.67405762510000 -1.07167957610000
H  1.72940459710000 -1.95696101740000  2.14158094910000
H  1.43316991120000 -3.02113845490000  3.21094211520000
H -1.46635732850000 -0.83569940250000 -1.93640464510000
H -2.79540875800000 -1.52739562450000 -1.50111072080000
H  0.71097188040000 -2.82401714150000  0.72636850260000
H -0.43609686960000 -2.56955791910000 -0.30625140010000
H  0.17701957610000  2.92200417370000 -1.00694916420000
H -0.32886547740000  1.56463524220000 -0.51529336130000
H  1.39481100830000 -2.37256676490000 -1.78123359840000
H  2.28891295290000 -2.47486133540000 -3.06292424380000
H -0.16794464780000  0.61613366120000 -2.62006759130000
H  0.40248542030000 -0.81275394980000 -2.69258348460000
27
Energy/monomer =  -0.269842  +-  0.00334971  eV
O  0.70739544750000  0.04531923570000  0.24460116470000
O -1.88398196200000  0.44641658200000  0.43045809810000
O  0.19017546880000 -0.09736564560000 -2.68102386280000
O -1.49626239350000  0.20728051130000  3.29799421730000
O -2.03156891960000 -2.31010033650000  0.26128877510000
O -0.36619081100000 -2.19993883590000  2.50608479150000
O -2.31606256760000  1.12192717070000 -2.32722981740000
O  1.61486905380000 -2.87410950840000  0.95586597650000
O -0.04898995480000 -3.10335439560000 -1.54963642490000
H  0.87946285950000 -0.81750521820000  0.70010867900000
H  0.76365357340000 -0.01423222120000 -0.71045837240000
H -2.02881990120000 -0.47881156640000  0.52381509440000
H -0.87380963790000  0.49058584780000  0.37140343790000
H -0.70939966310000  0.24119022280000 -2.48199899250000
H  0.25872346320000 -0.10820224740000 -3.64535782670000
H -1.36267394460000  0.83442033740000  3.98370272960000
H -1.83699008050000  0.62826733340000  2.44177545540000
H -1.43527603740000 -2.54565394660000 -0.48843707170000
H -2.92989417380000 -2.64667918650000  0.17281029330000
H -0.61977347490000 -1.46883178320000  3.08259088810000
H -1.09040745750000 -2.29711253610000  1.84837747510000
H -2.83213406870000  1.91910597780000 -2.32466043420000
H -2.44199001970000  0.79128222430000 -1.41403405390000
H  0.91461260140000 -2.74759247490000  1.69460773380000
H  2.27786546590000 -3.28130718620000  1.52046129730000
H  0.08272477780000 -2.34565706900000 -2.19559046330000
H  0.74354661200000 -3.08550877980000 -0.98849797160000
27
Energy/monomer =  -0.279086  +-  0.00318713  eV
O  0.35413334790000 -1.68174514100000  0.34273626860000
O -1.48954122660000  0.30194326830000  0.83217500540000
O -1.60886678440000 -3.28683471570000 -1.05033606390000
O -0.37845937220000  1.91379905380000  2.96574194110000
O -2.82116918740000 -1.37532085480000  2.69034984860000
O -0.44201018090000 -0.96263310320000  3.95543012750000
O -2.99543666270000 -0.98305721840000 -1.31569626480000
O  0.30418528260000 -3.21309655150000  2.60073898980000
O -2.15494339280000 -3.78910512420000  1.72125917530000
H  0.52622710980000 -2.45259905390000  0.93119338550000
H  0.00298236460000 -2.17354121220000 -0.46278117640000
H -2.14978943170000  0.01764372860000  1.48069941250000
H -0.92897437480000 -0.52216801370000  0.57937595190000
H -2.32653302480000 -2.62794543800000 -1.14315263620000
H -1.96716966510000 -4.13366615400000 -1.40828823730000
H  0.18934390730000  2.66044156970000  2.75077790140000
H -0.69960243050000  1.56620779600000  2.06202005130000
H -2.56980350890000 -2.27437170030000  2.34428831570000
H -3.68797604840000 -1.46405256170000  3.08769346650000
H -0.29317669150000 -0.03694572010000  3.82324517290000
H -1.36801757040000 -1.14127447120000  3.65224856310000
H -3.32421477700000 -0.60707979700000 -2.13234815200000
H -2.43000737310000 -0.35553126160000 -0.82676120300000
H  0.28803410410000 -2.32610755380000  3.08401383450000
H  0.80088156220000 -3.78979710210000  3.17130833390000
H -2.19662763300000 -3.64337419080000  0.74852454970000
H -1.18617599270000 -3.71224567610000  2.04447050370000
27
Energy/monomer =  -0.243187  +-  0.00308779  eV
O  0.36644537090000  0.53425712970000  0.93772917410000
O -2.64788068030000  0.72454704360000  1.19617114720000
O -2.03914198900000 -1.78812067690000 -2.10395791690000
O -2.39977414390000  1.71809637330000  3.83135362790000
O -3.34420575900000 -2.34355082480000  2.98001608940000
O -1.18183294360000 -0.82978871090000  4.02733174280000
O -3.02421765940000  0.65745949180000 -1.74544915070000
O  0.22759142150000 -1.86507448020000  1.97143395220000
O -2.10478069370000 -2.01542397020000  0.65760007020000
H  0.10825585420000 -0.33762985450000  1.31615940600000
H  0.72764567900000  1.04039675690000  1.67239463090000
H -2.33790775070000 -0.25655134560000  1.25488020720000
H -1.76436738030000  1.19028984200000  1.10113294460000
H -2.46762325230000 -0.86633863640000 -2.08565484200000
H -2.67476249480000 -2.33324936960000 -2.47711506110000
H -3.30783016790000  1.97426610580000  4.04476647250000
H -2.53278037070000  1.42107388460000  2.91007332610000
H -3.06962612560000 -2.41581119310000  2.04667655740000
H -3.16612711470000 -3.26249015060000  3.34714313310000
H -1.50910510260000  0.11569316910000  3.96403736700000
H -1.99357482070000 -1.35339512690000  3.80728660690000
H -3.35544029330000  1.42972307480000 -2.21096604870000
H -3.10010510730000  0.80711643830000 -0.77831102100000
H -0.03288088990000 -1.37271302000000  2.80872239340000
H  1.06890982280000 -2.25941687150000  2.16249512700000
H -1.98731569880000 -1.99033004760000 -0.34461681520000
H -1.24003128250000 -2.13092939280000  1.10537523730000
27
Energy/monomer =  -0.259048  +-  0.00304828  eV
O  0.38013112900000 -1.78602564410000  0.14618291620000
O -1.27502545850000  0.18262959900000 -0.31857083430000
O -3.15543913580000 -3.02929086900000 -2.53508375860000
O -0.42804655280000  0.08440348120000  2.46335311430000
O -4.32046905600000 -1.49916022760000  2.41679762400000
O -2.00761766590000 -1.92499217530000  3.73834602170000
O -1.78304744190000 -0.63377517450000 -3.06328186530000
O -1.13045044330000 -3.72123970240000  1.76912767330000
O -2.91968470900000 -2.14390931090000  0.18699934280000
H  0.16009419370000 -2.38435422680000  0.86870084510000
H  0.17821644570000 -2.41773986480000 -0.58467898620000
H -2.06900167580000 -0.37506241800000 -0.22461075380000
H -0.48426619720000 -0.36235296620000 -0.18332056470000
H -2.69057105090000 -2.28191691850000 -2.88297027430000
H -3.90537088700000 -3.19769608480000 -3.11596010310000
H  0.51855288080000  0.23865363120000  2.59578275780000
H -0.60065637400000  0.28864558520000  1.51667430930000
H -3.84352177030000 -1.58259480390000  1.52592171520000
H -5.25029380000000 -1.40197324460000  2.21860589540000
H -1.44942768230000 -1.19314252490000  3.43790583150000
H -2.94702946360000 -1.85918412020000  3.51490268030000
H -1.71667517840000  0.07534907310000 -3.70815922430000
H -1.55655731490000 -0.28434926540000 -2.21597743480000
H -1.37549157990000 -3.15879423760000  2.57078411960000
H -0.92994725230000 -4.65287286220000  2.00240678140000
H -3.15439414580000 -2.47049130590000 -0.72024015100000
H -2.16215184360000 -2.66645565860000  0.55271075930000
27
Energy/monomer =  -0.221931  +-  0.00374868  eV
O -0.35346839060000 -0.97079477880000  0.58362546050000
O -2.47722527050000  0.07766835580000 -0.88884876390000
O -4.89752303830000 -1.45331277670000 -2.92576983470000
O -2.57180297940000  0.11245776820000  1.97635950170000
O -5.76768482540000 -2.69831139530000  1.50761255290000
O -3.19237888530000 -2.80349997760000  2.74180364940000
O -3.94662598680000  1.20435949910000 -2.65936087730000
O -1.81826732520000 -3.34062601530000  0.59521474200000
O -3.94410652390000 -2.18771464910000 -0.54560289720000
H -0.74678970440000 -1.92285463160000  0.63795688990000
H  0.14691556230000 -0.92926953630000  1.43513728410000
H -2.89220324650000 -0.82800747330000 -0.98905953880000
H -1.57180758990000 -0.10140131230000 -0.49826438840000
H -4.71436269240000 -0.45481202560000 -2.84392441470000
H -4.47036251190000 -1.76154277070000 -3.74520762690000
H -1.66305534060000 -0.10408380940000  1.70835222010000
H -3.03101492590000  0.14001838960000  1.08113491800000
H -5.21399953820000 -2.54297966160000  0.76634691160000
H -6.02284575050000 -1.82963434630000  1.87387858100000
H -3.24885252980000 -1.84729495360000  2.78299221390000
H -4.06691612570000 -3.12198251690000  2.40161467570000
H -4.34682037090000  2.01780081890000 -2.53253510340000
H -3.26986619200000  1.06759372020000 -1.97990784520000
H -2.15776009620000 -3.15837201440000  1.52181295540000
H -1.98265718410000 -4.27597263710000  0.53253031320000
H -4.25591084470000 -2.39390813410000 -1.46303683020000
H -3.15246188940000 -2.70837663440000 -0.38162212450000
27
Energy/monomer =  -0.244435  +-  0.00316925  eV
O  0.82586122070000 -1.32796528110000  0.99845351050000
O -0.70665214420000  0.77186887640000  0.81244179250000
O -2.46541953930000 -0.89736717160000 -2.24549949320000
O -2.49042638090000  1.06510273480000  3.31037959550000
O -5.19018869990000 -0.75494846990000  2.15976058530000
O -3.45852918190000 -1.59861359250000  4.22376289810000
O -0.86247399390000  1.34416571010000 -1.85943730700000
O -1.85522391830000 -2.95403154450000  2.22907866800000
O -2.93759732940000 -1.04348112330000  0.45249021790000
H  0.23354815980000 -2.09920847240000  1.23640281800000
H  1.35795507550000 -1.68030859400000  0.26932619840000
H -1.33186045050000  0.27075094330000  0.22817348630000
H -0.00417901450000  0.15178011240000  1.00194724710000
H -1.88276144240000 -0.03514382840000 -2.29960884450000
H -2.53195176190000 -1.19472949020000 -3.13919759190000
H -1.98186441760000  1.73998801290000  3.74973360370000
H -2.06206121640000  0.83278942030000  2.45380572580000
H -4.42233851750000 -0.94025057750000  1.57818359700000
H -5.29018913210000  0.21328861820000  2.05014625640000
H -3.11283476520000 -0.66914272360000  4.16620653670000
H -4.28446886580000 -1.54845075830000  3.75620320480000
H -1.21702946560000  2.22940013610000 -1.94766683580000
H -0.41117427560000  1.35496656060000 -0.97245696440000
H -2.36750348050000 -2.60371700000000  2.96208632840000
H -2.01852034770000 -3.90543855520000  2.27355261790000
H -2.85165591630000 -1.31924316900000 -0.46913117800000
H -2.44487892690000 -1.72638731200000  0.97908574320000
27
Energy/monomer =  -0.28095  +-  0.00268924  eV
O -0.83338895320000 -1.92782711250000 -0.96561546900000
O -1.46744288270000 -0.15443519120000  1.03274223240000
O -3.23367799140000 -0.84869630180000 -1.95625979720000
O -0.81541894000000  0.19470697210000  3.78887429170000
O -3.82837139930000 -0.90157219580000  3.42871071760000
O -1.61697493760000 -2.40803531920000  3.51502235510000
O -1.88587686170000  1.56619040680000 -1.36817560670000
O -1.80211291110000 -3.58448835330000  1.08136857380000
O -3.86231703010000 -1.60722797730000  0.70235082660000
H -0.87542765890000 -2.71562198090000 -0.34763444040000
H -1.72321066880000 -1.81476553750000 -1.31184987400000
H -2.31399334420000 -0.64853354730000  1.05560881980000
H -0.82924453600000 -0.62810257440000  0.46842030510000
H -2.81771321150000 -0.01763024810000 -1.63635529780000
H -3.23988340600000 -0.73033432750000 -2.93881908240000
H -0.05697618000000  0.28860667930000  4.37514691580000
H -0.55441312790000  0.42632838090000  2.90084089260000
H -4.03930058530000 -0.91794508120000  2.47521528910000
H -3.52904795320000  0.00150843050000  3.61177269570000
H -1.26136852030000 -1.50813016480000  3.42033888530000
H -2.57160824180000 -2.21041291820000  3.51996539840000
H -2.09318212270000  2.49307836530000 -1.17086767210000
H -1.58910720920000  1.15799135900000 -0.51659316140000
H -1.60916068210000 -3.27972648400000  2.00459084820000
H -1.93655696870000 -4.51654613360000  1.18800607830000
H -4.05346536100000 -1.16394894220000 -0.15676692910000
H -3.37447045340000 -2.43869514510000  0.59048706560000
27
Energy/monomer =  -0.25253  +-  0.00322607  eV
O -1.36183754160000 -1.83217783540000 -1.26344932470000
O -0.17372909860000 -0.39095718590000  0.97787876150000
O -2.54724938000000  0.98603688880000 -1.44632016740000
O  1.32675129210000 -1.50570530030000  3.16729061620000
O -3.48378576860000 -0.02698109520000  4.11075720210000
O -1.67629778670000 -2.41226598190000  3.85288201690000
O  0.19947203020000  1.97846672400000 -0.69634454820000
O -2.50149490620000 -2.41573649960000  1.14040121950000
O -2.96662609420000  0.40052979920000  1.38142519510000
H -1.76533898690000 -2.19734983750000 -0.42395691670000
H -1.83022981060000 -0.98835011090000 -1.46465007890000
H -1.02479054960000 -0.20301943600000  1.46235706480000
H -0.37679862280000 -1.06164626140000  0.29849786410000
H -1.60575433910000  1.27034106530000 -1.39767997600000
H -2.98792174390000  1.28930477780000 -2.27735486370000
H  1.71783664520000 -0.66402143940000  3.54420246640000
H  1.00898338340000 -1.39160884270000  2.24906890830000
H -3.16663216650000  0.15170358040000  3.21555836830000
H -4.22782886160000  0.54908871710000  4.28261134760000
H -0.74497906520000 -2.15393615540000  3.94222031370000
H -2.23116189190000 -1.84038837480000  4.34432509020000
H  0.87014209390000  1.72618950460000 -1.36576503470000
H  0.17716287530000  1.21906154520000 -0.04891479490000
H -2.13155220450000 -2.54277881930000  2.07141327700000
H -3.22403559250000 -3.03027209490000  1.01699981260000
H -2.94733417960000  0.66863846390000  0.43635760590000
H -3.01458595920000 -0.60336412270000  1.28910978530000
27
Energy/monomer =  -0.251972  +-  0.00305515  eV
O -0.57895129670000 -0.78449952680000 -2.26815840900000
O -0.45835860120000  0.10043805990000  0.25896945490000
O -2.62433621900000  1.35904722690000 -2.17365265880000
O  0.58439280430000 -1.14465042380000  2.39770651360000
O -3.44567938660000 -0.53941555500000  2.69700973210000
O -1.79173317700000 -2.29531015250000  1.61220275600000
O -0.50956025340000  2.53991214090000 -1.37251869420000
O -2.15251181060000 -2.71897370230000 -0.98072695630000
O -3.37779060140000 -0.22613729280000  0.07292484030000
H -1.12080413830000 -1.57067870950000 -2.26816160830000
H -1.13616534380000 -0.03369516930000 -2.50580216470000
H -1.37966885240000  0.03114166260000  0.54028914330000
H -0.37729964220000 -0.34807568050000 -0.64822429000000
H -1.92277729350000  1.90986246730000 -1.80620994110000
H -2.91451445230000  1.75784986610000 -2.98884347110000
H  1.23207340980000 -0.62773868080000  2.82954769070000
H  0.47373509500000 -0.74252904120000  1.50470096650000
H -3.73300702500000 -0.33693857960000  1.78156434340000
H -3.90987576040000  0.14363249890000  3.27273674810000
H -0.97856182420000 -1.97199039260000  2.04479181680000
H -2.42010952900000 -1.68993165770000  2.07756987860000
H  0.33747332950000  2.85069142380000 -1.65155738200000
H -0.27589401220000  1.77009223810000 -0.82960330800000
H -1.88769094110000 -2.75949286180000 -0.00357038310000
H -2.97081954340000 -3.25938402580000 -1.01877566630000
H -3.20327508240000  0.19465386570000 -0.79023318030000
H -3.02140126690000 -1.15535042880000 -0.01719651800000
27
Energy/monomer =  -0.305778  +-  0.0031913  eV
O -1.66723910310000 -0.61379338170000 -1.47316356520000
O -1.24213155230000  1.46898737250000  0.33416422050000
O -4.51553817720000  0.23200879930000 -0.89105737120000
O  1.31585504310000  1.08822538400000  0.98544130390000