192
lattice vectors: 12.42912112 0 0 0 12.42912112 0 0 0 12.42912112 Energy/monomer =  -0.368799  +-  0.000888532  eV
O -6.31504583 -6.96366310 -2.72627950
O -8.45501137 -4.28040600 4.57241678
O -3.34254265 -7.53874588 -4.81753922
O -6.00126457 2.73719716 4.28764105
O -3.32503390 4.33411789 -7.89316702
O -10.86732292 2.57142377 6.23482895
O -4.04160786 -6.00639248 2.82591510
O 1.37160087 -0.38430426 2.60069180
O 0.16538815 3.71141911 1.34374118
O -4.60142469 -3.04783869 3.58867168
O -8.47128773 5.27224493 -5.48457670
O -2.40646720 1.20477355 -1.77750456
O 2.99062514 0.08082870 -5.12260771
O -2.17296195 2.63227940 0.51625723
O -0.16663843 6.50960827 -3.78184891
O -8.49094486 7.69357872 8.23789406
O -4.60740566 -2.26502395 -2.95746398
O -5.66186476 -9.40780067 -3.66805387
O -8.64172840 -6.90924168 -1.00803602
O -6.07779980 -4.89796257 5.49510241
O 2.34769464 -3.36739612 -6.01602077
O -3.76762342 -7.55055523 0.48845601
O -3.43009281 1.64490891 4.79866838
O -0.46168166 -6.12163162 1.09510243
O -6.50911379 -0.79509622 -8.81709671
O 7.49520111 -4.91360664 -1.69814694
O 3.90259004 -2.11219835 2.64090061
O -0.68540132 9.46042824 2.36137581
O -0.18799661 7.78617859 -6.63894939
O 4.54612160 7.51634836 0.64674801
O 3.73654199 0.48572090 -1.15618587
O -2.21734905 8.33113861 0.26419133
O 4.05333185 -1.98103845 -0.02185570
O 1.90192807 -0.73786831 -2.80972743
O -4.14224911 0.26880389 -3.47064471
O -0.72952807 -1.66858363 6.68440771
O -2.27017903 -6.87003994 -2.08701849
O 2.75970435 -7.42528820 -8.08861637
O -2.25251484 -2.58540106 4.43371773
O 6.79196739 1.08504128 6.35011005
O 5.49075556 5.64833307 2.51119447
O 2.94602489 1.66261744 -11.18212891
O -0.73105466 3.30720711 9.47586536
O -2.29456806 2.04934812 -5.04749346
O 1.78723109 3.34286904 -1.94128072
O 1.19450939 7.50113201 3.06086278
O 0.25740579 3.77765775 4.20728016
O 2.08474922 7.29129648 10.03464317
O 6.13780832 -3.29400706 -4.73900652
O 1.31295585 -4.30244303 0.10245909
O 5.76587772 -10.96664143 1.63199544
O 5.30121088 -1.12653327 6.33600140
O 6.39001274 4.81748056 -6.36224413
O 7.21732378 -0.74047625 0.21252051
O 5.90417480 3.87129521 0.18074951
O -2.98690438 0.55685866 2.40691853
O -0.31108531 -1.99076760 -1.78423977
O 7.31231642 -3.75379443 0.87101680
O 1.21826243 -0.85190046 5.17803812
O -1.06496561 5.10914516 6.14282465
O -2.22679615 8.84171581 -2.69012761
O 4.01270247 2.12188435 -3.72990346
O 1.69374335 4.52970505 -4.40602541
O 10.43322468 -0.98995972 0.03126749
H -5.79312801 -6.26504898 -2.37597966
H -8.41998100 -3.59314179 3.90820169
H -3.37715197 -8.40490437 -4.44185734
H -5.07266521 2.91264296 4.07020903
H -2.59695578 4.66874695 -7.44677067
H -10.30360985 1.91717947 6.68361759
H -3.95338082 -5.06667852 2.94704604
H 1.23877645 -0.39831364 3.55441070
H 0.13583852 3.45060563 2.28717899
H -5.00832415 -3.60508657 4.28174829
H -8.37912846 6.16458035 -5.07643795
H -2.49952078 0.55142862 -1.11293638
H 3.43661666 0.89750516 -4.74682856
H -2.32637024 2.28041053 -0.40385184
H -0.62454700 7.07884359 -4.35806751
H -9.03492355 8.28426933 7.74227190
H -3.72664261 -2.64869761 -2.99651170
H -5.46084690 -9.33606815 -4.59570074
H -8.22439480 -6.27162790 -0.41556787
H -6.96759605 -4.64862728 5.15916824
H 2.04887176 -2.44794869 -6.21551323
H -3.15312243 -7.25187683 -0.16663116
H -4.03584433 1.57588899 5.53983307
H 0.10668758 -5.51180315 0.71371299
H -7.34802055 -1.32536137 -9.07578087
H 7.40926695 -4.66315508 -0.78496742
H 3.17503476 -1.48133922 2.79959226
H -0.05739218 8.75185108 2.42537689
H 0.24250983 7.51276350 -7.39614630
H 5.39381075 8.05878639 0.61367309
H 3.20211983 1.06745338 -0.67476559
H -3.12351322 8.30922318 0.39998388
H 4.00769091 -1.10421813 -0.39931673
H 2.45116353 -0.14531421 -2.29062319
H -4.90046406 0.75393385 -3.82656622
H -0.91604143 -1.57507992 7.63071060
H -2.97441816 -6.76624346 -2.71853900
H 3.18323731 -7.34467363 -7.22243023
H -1.48194635 -2.76315689 3.86267686
H 6.49984837 0.16109729 6.31747103
H 4.73815966 5.30496264 2.96629930
H 2.38359404 2.36589193 -11.38939476
H -0.46115825 3.61055779 8.62746811
H -2.26730871 1.84387732 -5.96944904
H 1.90705061 3.89254904 -1.13334179
H 0.77951699 6.69345808 2.85593605
H -0.25663465 4.22898912 4.86591101
H 1.32062173 7.13611937 9.52436733
H 6.34290266 -3.81580305 -5.48040247
H 1.94986438 -4.48227501 0.80672282
H 4.84435844 -11.00938797 1.62436080
H 4.53303432 -0.59858799 6.61539459
H 6.31594324 4.06403399 -6.94876432
H 6.57920837 -0.37624958 -0.44805548
H 5.21987009 4.09243488 -0.45769536
H -2.52341366 1.29267693 2.00923681
H -0.97196662 -1.71122682 -1.10594165
H 7.06028128 -2.97903299 0.28558564
H 0.38258818 -1.00604582 5.63397503
H -1.87265229 5.07118177 6.69338799
H -2.21766090 8.00881004 -2.25659990
H 4.88136101 2.60390139 -3.73689842
H 1.04253161 5.26815844 -4.25164032
H 10.18956375 -0.70881796 0.94120270
H -7.14357233 -6.71134567 -2.32921052
H -9.00186634 -3.98211813 5.31658316
H -4.16632652 -7.42499590 -5.26726389
H -6.37168217 2.60768437 3.37017345
H -3.58132029 5.06191063 -8.46547031
H -10.81357193 3.34719133 6.83979940
H -5.01617479 -6.24317312 2.96309853
H 0.73124522 -0.91313595 2.24173427
H -0.65650594 3.40389252 1.04012930
H -5.01135921 -2.13793111 3.67012882
H -9.21504116 4.93016529 -5.02637339
H -3.14344025 1.09464312 -2.35185099
H 2.50228548 -0.40059093 -4.42516851
H -2.70722580 3.42956281 0.66376978
H -0.81140471 6.08111143 -3.13051558
H -7.68518734 8.22941208 8.26448250
H -5.14192247 -2.80897188 -3.53671670
H -5.68517351 -8.49637032 -3.35685420
H -9.29443645 -6.46964645 -1.45871425
H -6.02043962 -5.87251663 5.58129311
H 1.44258010 -3.85883570 -6.05587196
H -3.77164173 -6.90572596 1.22618222
H -3.34224772 2.55351996 4.67301035
H -0.14936532 -7.03945589 0.97468501
H -6.32388306 -0.16061966 -9.53934193
H 7.69696808 -4.07921362 -2.07061100
H 3.89378977 -2.14871716 1.62508380
H -1.25110734 9.28205872 1.62822235
H -0.73031974 8.50955963 -6.82543325
H 4.68234873 7.04517221 1.48108900
H 4.22656679 0.95676386 -1.84796762
H -1.93985915 7.40440893 0.32687563
H 3.65147948 -2.51237321 -0.69508928
H 1.17371511 -0.94052315 -2.24266744
H -4.39947176 -0.62374830 -3.20331049
H -1.56143308 -1.84061241 6.26524401
H -1.83610511 -7.74420929 -2.27279305
H 1.87388873 -7.76346064 -7.93528605
H -3.13204074 -2.77696514 4.09514523
H 6.47544050 1.62105608 5.58384228
H 5.66859770 5.10605860 1.74727118
H 2.37403274 0.88985014 -11.07854366
H -1.22229552 2.49213815 9.33124828
H -2.83287001 1.40745139 -4.59817171
H 0.92618746 2.91742206 -1.82573462
H 2.01779318 7.18451595 3.45678997
H 0.80240744 3.18302083 4.75533628
H 2.82533002 7.41345215 9.43700218
H 6.05682564 -2.42694092 -5.18074989
H 1.73553848 -4.51202154 -0.76760751
H 5.89807510 -10.19888783 1.12287343
H 5.25727987 -0.92806637 5.40444708
H 5.47775412 4.88759518 -5.97809219
H 7.13562298 0.08063880 0.73319989
H 6.62958002 4.44024515 -0.09421976
H -3.19699550 0.77163476 3.30854988
H 0.16937001 -2.67924809 -1.37874877
H 7.51060200 -3.42906880 1.75559950
H 1.66010559 -0.32027137 5.83107996
H -0.69557017 5.98683119 6.06865263
H -1.50517571 9.33919430 -2.35033488
H 3.45489883 2.55304313 -3.05991793
H 1.78998995 4.13418150 -3.51006246
H 9.63492584 -1.43550730 -0.22714230
192
Energy/monomer =  -0.370084  +-  0.000956688  eV
O -6.15700626 -6.84982586 -3.16110253
O -8.29605389 -4.29117489 4.36157799
O -3.18839598 -7.88530111 -4.71407032
O -5.61654568 3.05988955 4.14156961
O -3.18746853 4.22505093 -8.33683205
O -10.86509228 2.34894395 6.20300150
O -4.47367048 -6.13978624 2.96709752
O 1.34204662 -0.40568623 2.56862688
O 0.42220464 3.47338223 0.85399169
O -5.00854683 -3.39732313 3.44591975
O -8.46465206 5.23926544 -5.58832598
O -2.21094799 1.25434816 -1.71325958
O 3.17408276 0.44077957 -5.06834745
O -2.37362456 2.97435546 0.54256374
O -0.53041655 6.83518600 -3.56560159
O -8.50866604 7.77211761 8.12770367
O -5.24738741 -2.27044940 -2.37133455
O -6.13927555 -9.55805206 -3.63665748
O -8.06914234 -6.75426388 -1.10236835
O -5.77289629 -5.07035542 5.61507463
O 2.15490818 -3.65483665 -6.03800821
O -4.09924412 -7.24980354 0.37778938
O -2.98936486 1.49928820 4.86222458
O -0.59863108 -6.16661787 0.88175642
O -6.31589985 -0.93752605 -9.21082211
O 7.51783895 -5.15562344 -1.35016727
O 3.48844171 -2.25632429 2.74844742
O -0.43342334 9.91428757 2.06816673
O -0.44782695 7.57238960 -6.43413687
O 4.74306107 7.67786837 0.72862923
O 3.64731908 0.74893105 -1.08127964
O -2.21828198 8.50197697 0.54118311
O 4.20199728 -1.86144054 0.12779754
O 2.01221180 -1.03339481 -2.99567008
O -4.31171942 0.08506046 -3.45150065
O -0.73103827 -2.34175634 6.65598297
O -2.28046727 -7.19876051 -2.30940747
O 2.81758332 -7.11588335 -8.33133125
O -2.23673534 -1.45097411 4.45896244
O 6.76826811 1.44321060 6.20490789
O 5.38857794 5.71871805 2.84854078
O 2.38549781 1.64916945 -11.20580387
O -0.55241960 3.16486335 9.24768639
O -2.65427470 1.96137393 -4.79892015
O 1.78484428 3.47002220 -1.61590874
O 0.74406976 7.17395210 3.62352228
O 0.71144891 3.23057532 3.88607883
O 2.05013180 6.80381489 10.16922569
O 6.40055752 -3.14280105 -4.87463760
O 1.34527206 -3.88640499 -0.02412863
O 5.68330956 -10.76417065 1.80306280
O 5.26550817 -0.92225802 5.92260361
O 6.85934782 4.74948072 -6.13986444
O 7.98621893 -1.05552220 -0.00800955
O 5.69108200 4.17527580 0.63861185
O -3.14400411 0.69784218 2.13635111
O -0.27941149 -2.43353868 -1.61648273
O 7.37429714 -3.57021785 0.84169990
O 1.65396440 -1.01622427 5.30726480
O -0.98308069 4.78794622 6.19451237
O -2.61053181 8.97026634 -2.62131000
O 3.69103622 2.34070110 -3.29065251
O 1.67214715 4.60771418 -4.39540482
O 10.63479042 -0.80162495 0.05135916
H -5.47060442 -6.46961403 -2.62140727
H -8.54893208 -3.61995721 3.70040655
H -3.07471967 -8.87065887 -4.79951620
H -4.81418610 3.50868917 3.80628037
H -2.44333434 4.39888573 -7.73037910
H -10.33365536 1.70871484 6.69530296
H -4.40104294 -5.21629286 3.10158658
H 1.42749834 -0.38638431 3.53622246
H 0.62013942 3.43225312 1.79851830
H -5.42775059 -3.90635276 4.14345551
H -8.35308647 6.11127281 -5.13704872
H -1.75978160 0.49603444 -1.44240415
H 3.54522681 1.08826959 -4.50670195
H -2.56154513 2.46481562 -0.25712517
H -0.68097335 7.09862947 -4.42616129
H -8.98582458 8.16295052 7.39244699
H -4.33966160 -2.64856982 -2.57070231
H -6.05845881 -9.62706757 -4.58418274
H -7.95489788 -6.01827145 -0.47480962
H -6.72131824 -4.93323708 5.37489843
H 2.10467434 -2.78038096 -6.36398697
H -3.82138920 -6.64642572 -0.29152378
H -3.85464835 1.25656796 5.19208479
H 0.13827004 -5.64115238 0.51803565
H -7.10394859 -1.08766627 -9.80025291
H 7.33125830 -5.11330462 -0.40438300
H 2.73420858 -1.61432850 2.75801301
H 0.14397821 9.23564816 2.39898205
H -0.06978476 7.46653795 -7.34035158
H 5.40883827 8.40737152 0.67684042
H 3.14077711 1.25266457 -0.46761537
H -3.14753222 8.45799351 0.49084607
H 4.06663561 -1.12279117 -0.42185119
H 2.03140926 -0.19518757 -2.48925853
H -5.07065487 0.65713632 -3.31648207
H -1.29589331 -2.59794331 7.39194441
H -2.82721424 -7.36215830 -3.04426742
H 3.33442426 -7.12990808 -7.51820517
H -1.91739893 -1.78371727 3.60228467
H 6.21279335 0.68261039 6.06510782
H 4.55272007 5.80951738 3.28866649
H 1.70635557 2.27185035 -11.33669853
H -0.01087247 3.34728479 8.47673798
H -2.59123254 1.78031957 -5.73410559
H 1.19178975 3.65536857 -0.89748108
H 0.42787871 6.90643215 2.78080797
H 0.05206542 3.73512077 4.29926634
H 1.25169694 6.72077465 9.60800743
H 6.53068781 -3.69879580 -5.65077209
H 1.73654651 -3.02743006 -0.00143361
H 4.84395933 -11.06856632 1.66824007
H 4.41961575 -0.51868278 6.04639626
H 6.68153524 4.11297798 -6.80650091
H 7.42000198 -1.28455853 -0.76659840
H 5.06744766 4.65128708 0.08044659
H -3.12368798 1.55510616 1.73019195
H -0.67702293 -1.80432737 -0.99757975
H 7.73851204 -2.78201818 0.51247263
H 0.76999319 -1.10950291 5.67626905
H -1.80074275 4.76704168 6.75774431
H -2.68492270 8.04227543 -2.48371792
H 4.54942036 2.73772550 -3.30871105
H 1.00752580 5.25005865 -4.55615711
H 10.49652576 -0.27501166 0.87041205
H -6.84916592 -6.84900141 -2.45710969
H -9.08129692 -4.48550797 4.87642670
H -4.04009342 -7.68081570 -5.10873175
H -6.02257919 2.59121704 3.39488459
H -3.46723843 5.13411617 -8.52199364
H -10.84272861 3.12079692 6.78072596
H -5.36542368 -6.46977711 3.02560592
H 0.80715853 -1.15452814 2.35394549
H -0.48886073 3.20972061 0.86108291
H -5.31394386 -2.49269366 3.49643373
H -9.13946533 4.81660748 -5.07692051
H -2.90400600 1.03760147 -2.26156378
H 2.76874042 -0.25699738 -4.53690481
H -2.97842097 3.71837735 0.53607398
H -1.30627859 6.48680925 -3.19079018
H -7.65587854 8.20506859 8.16780186
H -5.71006203 -2.39343405 -3.24681807
H -6.05433702 -8.59815121 -3.47099733
H -8.97215939 -6.74495840 -1.36434948
H -5.65346289 -6.01147461 5.76342154
H 1.17744327 -3.94558191 -6.04273939
H -4.10794640 -6.79498005 1.22367775
H -3.13159299 2.45827127 4.53571606
H -0.37382987 -7.13744164 0.76577592
H -6.01620531 -0.06506491 -9.26075268
H 7.59431171 -4.28127241 -1.59961474
H 3.69214725 -2.19008207 1.84776986
H -1.09619999 9.50769329 1.47501719
H -0.63118219 8.53490257 -6.18840504
H 4.81630230 7.26765251 1.61866224
H 3.69117618 1.22933006 -1.92479765
H -1.87699640 7.55264807 0.65316212
H 4.71937418 -2.39486217 -0.44181722
H 1.31738544 -1.52524471 -2.58072591
H -4.48654890 -0.74126148 -2.97043657
H -1.27478135 -2.08254814 5.86679554
H -1.56670821 -7.82583618 -2.47195768
H 2.39764953 -7.98087358 -8.42248535
H -3.16508913 -1.25002646 4.45934582
H 6.84380198 2.05928612 5.46281624
H 5.30172491 4.90469122 2.29694009
H 1.77718210 1.01463544 -10.67823219
H -1.28622293 2.62327194 8.96670818
H -3.33641863 1.35959518 -4.45967913
H 1.12677479 3.07443905 -2.22065401
H 1.57539773 6.60896301 3.67015266
H 1.01958632 2.72336650 4.62718534
H 2.80870104 7.07579756 9.55095291
H 6.28271580 -2.27446604 -5.26753283
H 1.87425899 -4.33074617 -0.64986801
H 5.68770266 -9.98529530 1.19216847
H 5.25001192 -1.08476198 4.97924519
H 6.05838776 4.81921721 -5.57063246
H 7.86817741 -0.08097080 0.24592541
H 6.54005384 4.56811714 0.46225148
H -3.00043702 0.82072788 3.07477760
H 0.13663004 -3.09106445 -1.08496606
H 7.58681536 -3.40621638 1.77213895
H 2.04686880 -0.37893072 5.88804054
H -0.74742091 5.73290443 6.04062176
H -1.78555501 9.28655910 -2.16534281
H 3.18144345 2.87131071 -2.66393256
H 1.83400095 4.62094545 -3.41858554
H 9.74506950 -1.16203380 -0.12460536
192
Energy/monomer =  -0.369874  +-  0.000931059  eV
O -6.14286137 -7.11330223 -3.15927124
O -8.12962151 -3.85482216 4.49706650
O -3.22773242 -8.24893951 -4.92343712
O -5.53968763 3.34113431 3.75204182
O -2.50336695 4.13489819 -8.79546356
O -10.82560158 2.20862484 6.28127956
O -4.43026447 -6.14918661 2.76858211
O 1.50003529 -0.55815393 3.08831167
O 0.37959963 3.73897457 1.01649749
O -4.76295185 -3.47007799 3.78057909
O -8.48285484 5.62720966 -5.91950369
O -2.45683122 1.40960085 -1.63973355
O 3.27297974 0.01206714 -5.02061129
O -2.27047467 3.09610200 0.41049671
O -0.27591392 6.76142311 -3.22696519
O -8.54260159 7.82953167 8.14167595
O -5.47117615 -2.48277783 -2.38784075
O -6.19828463 -9.76514912 -3.66060162
O -7.89395094 -6.67793417 -1.19636011
O -5.82611942 -4.94179678 5.84317446
O 2.02701735 -4.00874233 -6.50420856
O -4.17028570 -7.38212442 0.27379462
O -3.00442672 1.53904665 4.76982880
O -0.18469504 -5.97998857 0.94596177
O -6.56759262 -0.66672599 -9.25216484
O 7.69445181 -4.96072340 -1.50822675
O 3.37919211 -2.30639458 2.45608950
O -0.37509811 9.86604786 2.65198016
O -0.46404287 7.48085690 -6.13507175
O 4.63258123 7.49605560 0.79293919
O 3.44904256 0.39931098 -1.22153556
O -2.19074249 8.58009148 0.83328807
O 4.52191210 -2.16311097 -0.32650930
O 1.99967301 -1.42283630 -3.09930325
O -4.65994692 0.53567183 -2.89424038
O -1.09944284 -2.30651903 6.61228418
O -2.40508461 -7.09119940 -2.34626675
O 2.56259084 -6.84387302 -8.25262451
O -2.22749162 -1.35409653 4.37665892
O 7.06817770 1.54059660 6.27201128
O 5.22485399 5.90191889 2.94643092
O 2.23223925 1.59264588 -11.14533424
O -0.65604115 2.77067566 9.54981232
O -2.50499606 1.59158456 -4.73992014
O 1.62007010 3.93358850 -1.61542380
O 0.24021193 7.12704659 3.47856474
O 0.69330537 3.43120551 3.77070332
O 2.33301878 6.85475349 9.99586010
O 5.80854607 -2.95654106 -4.91083288
O 1.79784488 -4.51046991 -0.15514231
O 4.88024616 -10.87326050 1.72940326
O 5.61247301 -0.75493503 5.92012835
O 6.63890600 4.55804110 -6.36886835
O 8.34275436 -1.19630384 0.01806913
O 5.79101276 4.01478863 0.83733928
O -3.06352186 1.19776225 1.95810676
O -0.07208591 -2.36249733 -1.67976809
O 7.56405163 -3.50588846 1.07954121
O 1.40733755 -1.48631501 5.91533613
O -1.01498830 4.65341806 5.76549530
O -2.57579470 9.15019608 -2.62780333
O 3.54217100 2.45550871 -3.06986737
O 1.67291427 4.73597717 -4.88168478
O 10.95676136 -0.38139972 0.07739020
H -5.56315994 -6.37855959 -3.04345441
H -8.54462528 -3.43460846 3.69707108
H -3.16721416 -9.21795845 -4.78148603
H -4.61985731 3.37839818 3.52119184
H -2.18389368 4.47876692 -7.91400528
H -10.46225166 1.45579636 6.72237015
H -4.04868317 -5.59132099 3.43731999
H 1.38197792 -0.79748213 4.00337648
H 0.26695234 3.71396828 1.95556867
H -5.17808199 -3.81348157 4.58478832
H -8.19766235 6.34006071 -5.31526232
H -1.89655495 0.65086007 -1.31466913
H 3.54438734 0.75885636 -4.40304232
H -2.43493819 2.72300315 -0.43809843
H -0.51957256 7.10246611 -4.08191347
H -9.15347099 8.00213623 7.44013929
H -4.53833628 -2.57619953 -2.69594264
H -5.99324131 -9.93227768 -4.58734608
H -7.89717293 -6.07083225 -0.44323480
H -6.52082157 -4.79349422 5.21973085
H 1.83928490 -3.07610393 -6.58074713
H -3.88122034 -7.12504768 -0.59116101
H -3.79865861 1.59887242 5.25571537
H 0.52212965 -5.49617338 0.47414532
H -7.16809654 -1.39716220 -9.27398586
H 7.52961826 -4.91852665 -0.57560158
H 2.64693069 -1.65494704 2.70023966
H 0.04839941 9.01536274 2.81969404
H -0.38973221 7.48306084 -7.06224871
H 5.06874371 8.37204742 0.66255122
H 2.99837899 0.79692227 -0.45020780
H -3.12209392 8.45318127 0.81139159
H 4.53919220 -1.24028897 -0.62724930
H 2.00837016 -0.73685837 -2.40615416
H -5.27082300 1.32222092 -2.80115294
H -1.65457261 -2.05836320 7.31780386
H -2.67500257 -7.34925604 -3.25183296
H 2.85797644 -6.62330389 -7.37266922
H -1.64181483 -1.69801772 3.68800092
H 6.56543684 0.70460993 6.19116116
H 4.37369204 5.87160397 3.36482906
H 1.54655671 2.18870568 -11.17345428
H -0.79127485 2.55252481 8.61026764
H -2.37305284 1.47405231 -5.65204620
H 1.38038957 3.92000771 -0.71444738
H 0.08970985 6.69336319 2.64338136
H 0.12736222 3.86339188 4.39148188
H 1.38866878 6.89592552 9.80612087
H 6.20832634 -3.71866035 -5.43900824
H 2.67261886 -4.25990725 0.06335966
H 3.96454000 -10.86776257 1.63588786
H 4.71980047 -0.57475072 6.25555420
H 6.73448896 4.44651842 -7.31092787
H 7.87481546 -1.00618291 -0.80977708
H 5.22361422 4.33017111 0.16620259
H -2.87567425 1.96156490 1.38327265
H -0.33717820 -1.56867254 -1.19444084
H 7.95616961 -2.67215562 0.78949594
H 0.50032210 -1.34848702 6.25867796
H -1.70892537 4.52336454 6.43664837
H -2.93921924 8.37289524 -2.21223783
H 4.46326780 2.76683879 -2.93259358
H 0.71307689 4.68138456 -4.97293568
H 10.61181641 0.31755459 0.55040091
H -6.71744490 -6.88879108 -2.37460923
H -8.86124134 -4.05314493 5.06934261
H -4.18024015 -8.03938580 -5.00964975
H -6.02684498 2.89674020 3.01816344
H -3.04661131 4.88849068 -9.10935020
H -10.64087677 2.91895652 6.85273504
H -5.37363625 -6.08689117 2.72309899
H 0.75981569 -0.95085239 2.67842650
H -0.51054132 3.54625559 0.71785718
H -4.36320591 -2.64172745 4.03621340
H -9.28097916 5.25996113 -5.53126764
H -3.33263373 1.11838484 -1.91886508
H 2.90737987 -0.67537135 -4.43548107
H -2.93452334 3.80637550 0.39516246
H -1.12159121 6.40622616 -2.80406094
H -8.03304005 8.62746239 8.03484154
H -6.02494574 -2.69687796 -3.17262816
H -6.15108442 -8.80055428 -3.60987401
H -8.70057201 -6.38227797 -1.72095823
H -5.86302185 -5.87540960 6.04419088
H 1.12132585 -4.35639238 -6.40230083
H -4.09906483 -6.61663198 0.84923762
H -2.56914711 2.43402457 4.69704247
H -0.04616283 -6.91384602 0.68845153
H -6.90711212 0.08092919 -9.79690075
H 7.27231121 -4.17199755 -1.79358268
H 3.76945639 -1.83187652 1.75518286
H -1.09344137 9.64233971 2.05347300
H -0.70679122 8.36758709 -5.94760084
H 4.75946045 7.10612679 1.65143704
H 3.57494497 1.13526380 -1.81596076
H -1.83057201 7.70756483 1.12436712
H 5.18386507 -2.49916315 -0.94801193
H 1.36568606 -2.05897617 -2.72579932
H -5.22706175 -0.20165837 -3.09254527
H -1.41803968 -1.88406849 5.79635906
H -1.95355058 -7.86129379 -2.05073357
H 2.17997241 -7.71779013 -8.25699139
H -2.24937725 -0.38448262 4.31942749
H 6.71796322 2.23737502 5.76005316
H 5.29521608 5.15972662 2.30655217
H 1.99731433 1.10337245 -10.39729309
H -1.28691339 2.16239548 9.90384007
H -3.20270658 0.94864255 -4.48936367
H 0.83055848 3.69197607 -2.07430577
H 1.18753719 6.88201666 3.66646838
H 1.06032884 2.74881577 4.27522802
H 2.73673224 7.48253345 9.45966148
H 5.83314037 -2.09014916 -5.36018801
H 2.00168514 -5.00391531 -0.98027140
H 5.12604237 -9.95293903 1.43458772
H 5.40870714 -0.77640259 4.98134184
H 5.67356396 4.70172644 -6.28138208
H 8.13782692 -0.66497296 0.81618673
H 6.67768288 4.33210659 0.48104876
H -2.73979855 1.57267559 2.77158856
H 0.48008257 -2.84590459 -1.08154559
H 7.48837805 -3.39149690 2.02539420
H 1.98402631 -0.82854289 6.24829102
H -0.84693968 5.60984612 5.73334742
H -1.65483201 9.29413223 -2.20807171
H 2.98626375 3.03541708 -2.51735210
H 1.72175324 5.06535387 -3.99566340
H 10.27768230 -1.04334986 0.01784572
192
Energy/monomer =  -0.370913  +-  0.000942602  eV
O -5.73097515 -6.93127966 -2.86485648
O -7.89573288 -3.70803404 4.47894144
O -3.37824440 -8.43273449 -5.09706831
O -5.57483912 2.69179368 3.33525038
O -2.46082687 3.95275593 -8.94019127
O -10.63753033 1.95452094 6.20584202
O -4.29174709 -6.20350409 2.82748532
O 1.37058997 -0.37653890 3.43420076
O 0.78124648 3.81646800 1.38765538
O -3.89604568 -3.62534523 3.90778613
O -8.67431355 5.48466921 -5.97920561
O -2.60007405 1.43136919 -1.13798082
O 3.37188363 0.01688785 -4.94262743
O -1.73014462 3.58673334 0.07557734
O -0.20510291 6.72417784 -3.15170717
O -8.58927155 8.02873230 7.95069838
O -5.17827845 -2.06874561 -2.74298596
O -6.44037485 -9.79865837 -3.93386412
O -8.28711033 -7.07895994 -1.01656580
O -5.63123846 -4.64136744 5.73611403
O 1.59941185 -3.98063159 -6.69398689
O -4.34355450 -7.16871023 0.25223580
O -2.76673818 1.46066344 4.52852488
O -0.37256002 -5.94379520 0.96803623
O -6.81914330 -0.53922039 -9.03864574
O 8.09164906 -4.70007563 -1.21430838
O 3.44756651 -2.33990622 2.20561934
O -0.24809043 9.89759731 2.87783575
O -1.03300464 7.64021969 -6.18367100
O 4.63423920 7.53449631 0.68514156
O 2.86842227 0.19031072 -1.13793683
O -1.89316249 8.85392857 0.86208689
O 5.32822943 -2.79778361 -0.88394803
O 2.30273700 -1.88136482 -3.01620150
O -4.83996487 0.70576519 -2.67383599
O -1.59915113 -2.48519874 7.31892872
O -2.51400757 -7.43020916 -2.72965455
O 2.73025966 -6.40467501 -8.61284637
O -2.81291795 -1.27746964 4.71535587
O 7.16715384 2.15754533 6.02400064
O 5.42408323 5.70420408 2.94312716
O 1.92186570 0.99383217 -11.20158958
O -0.84687304 2.84641051 9.50339127
O -2.44116831 1.17959332 -4.78982162
O 1.68007588 3.74409008 -1.89264238
O 0.09660810 7.13232994 3.39813638
O 0.72601360 3.84077740 4.04130459
O 2.36109281 6.79016304 9.88084888
O 6.05427074 -2.67487621 -5.07313442
O 1.77850818 -4.35552597 -0.22607845
O 4.53228331 -10.63627720 2.05991316
O 5.75645924 -0.18990558 6.17118406
O 6.51032114 4.87078571 -6.81227064
O 8.20378399 -0.91155851 0.40322968
O 5.76444530 3.89071131 0.71470594
O -3.12193346 1.05769777 1.88105643
O 0.09640629 -2.77298188 -1.36625934
O 7.58590984 -3.66312099 1.26722884
O 1.15808964 -1.32193208 6.08365679
O -1.08311129 4.88223076 5.92030191
O -2.53964472 9.34156990 -2.70294952
O 3.22732282 2.16112518 -3.27860522
O 1.25885224 4.39452457 -5.04921293
O 11.35169506 -0.76336610 0.18572356
H -5.02074766 -6.68723202 -2.30418205
H -7.86577320 -3.15714240 3.68272734
H -3.18717837 -9.34737015 -4.98925257
H -5.20157719 2.92370176 2.46010637
H -1.96142817 4.60254908 -8.43619537
H -9.95754719 1.34130847 6.46263409
H -4.02306890 -5.37663221 3.28738332
H 1.29886639 -0.11372051 4.34519148
H 0.56391495 3.77996564 2.40059423
H -4.65869188 -3.97824287 4.46976757
H -8.68575859 6.34703398 -5.62241602
H -2.20974302 0.53701419 -0.92096370
H 3.30055261 0.72555614 -4.32081509
H -1.99414265 2.77104044 -0.40506715
H -0.62859571 7.53114748 -3.49230933
H -9.28264999 8.52812481 7.49986601
H -4.21828127 -2.30220604 -2.83825898
H -5.90792418 -9.56654263 -4.66449022
H -8.21913528 -6.24023056 -0.59923053
H -6.50334883 -4.57347679 5.31813574
H 1.50837195 -3.08155870 -6.53424454
H -4.44501257 -6.35301924 -0.24483716
H -3.69005775 1.58972287 4.88766241
H 0.38351083 -5.71376419 0.45663497
H -7.16554976 -1.12128758 -9.77582169
H 7.80551767 -4.44670248 -0.29137444
H 2.67592740 -1.74794185 2.25472951
H 0.02757387 9.01407909 3.17927313
H -1.06784081 7.65950966 -7.16373539
H 4.95739508 8.30619144 0.17434640
H 2.53400087 0.52485877 -0.28194129
H -2.84826636 8.81929684 1.06384647
H 4.67744923 -2.13174033 -0.65628904
H 2.73419523 -1.24969673 -2.36112428
H -5.38808489 1.36538553 -3.16200733
H -2.00562334 -2.72740626 8.13716602
H -3.05022812 -7.40676785 -3.55135465
H 3.07143569 -6.33737087 -7.72083855
H -1.86756122 -1.36160111 4.63286304
H 6.67783689 1.31312644 6.00946140
H 4.50702763 5.88049459 3.16795921
H 1.40859234 1.82616794 -11.18345356
H -0.63815361 2.84775400 8.59702492
H -2.21827126 0.66024971 -5.54211378
H 1.79563630 3.92966461 -0.97189450
H -0.21532258 6.80680656 2.54148936
H 0.16887784 4.23340559 4.72906113
H 1.42231214 6.75894403 9.71480274
H 6.30335617 -3.42428708 -5.58613491
H 2.59660816 -4.21632242 0.16683632
H 3.69505143 -10.89262295 1.70088387
H 4.84458017 -0.14968373 6.54093504
H 6.49261189 5.03408527 -7.73160505
H 7.86360884 -0.24668059 -0.17021877
H 5.11317492 4.47356033 0.34739000
H -2.55788922 1.80693603 1.71020019
H -0.27927476 -2.24619055 -0.66418177
H 7.40526485 -2.73732901 0.99933809
H 0.35805267 -1.50520778 6.58413267
H -1.85142279 4.52386236 6.37514734
H -3.00543118 8.63226700 -2.27954388
H 4.11381340 2.46777272 -3.43239832
H 0.59647226 4.85619497 -5.60171366
H 11.82423782 -0.29061794 0.83866125
H -6.45264530 -6.82496071 -2.28817201
H -8.83957291 -3.75879860 4.61538839
H -4.21545029 -8.35444069 -5.56649256
H -6.46375561 2.28732920 3.15906334
H -3.11182117 4.54180384 -9.28183460
H -10.74618530 2.61617637 6.83109426
H -5.23220444 -6.30622816 2.92791319
H 0.74155283 -1.17049253 3.40287590
H -0.06030558 3.61011982 0.95695978
H -3.78097129 -2.72608328 4.21791410
H -9.35879517 4.91972017 -5.57815695
H -3.48061705 1.29117882 -1.53332365
H 3.04652238 -0.73532629 -4.43598223
H -2.54280472 4.09449339 -0.06993048
H -0.95884931 6.05863476 -3.05143690
H -7.87749243 8.63556576 7.94061995
H -5.61078215 -2.24471474 -3.56438828
H -6.35690165 -9.01668644 -3.41935563
H -9.05822086 -6.81207418 -1.53893137
H -5.53881979 -5.57295704 6.00569105
H 0.75559968 -4.37246895 -6.44997406
H -4.15792418 -6.81607151 1.12390220
H -2.56358910 2.30670071 4.21041393
H -0.19872591 -6.88094378 1.17728448
H -7.00167084 0.37784359 -9.36312675
H 7.33966589 -4.71931028 -1.77567196
H 3.11014414 -3.10938334 1.76591063
H -0.74579775 9.64315891 2.10349631
H -1.44984078 8.49887276 -5.92445898
H 5.31838179 7.21191740 1.26258886
H 2.95480800 0.88323039 -1.74278545
H -1.64493859 7.92996407 0.70733851
H 5.79985762 -2.34192824 -1.60823250
H 1.43231392 -2.04969215 -2.59868002
H -5.04694796 -0.16643955 -3.01604009
H -2.22964716 -1.97024858 6.84543133
H -2.14167070 -8.31746292 -2.70541811
H 2.08310962 -7.09279251 -8.67377758
H -2.84307337 -0.30129594 4.62404871
H 6.78678274 2.60700536 5.29778433
H 5.49082136 4.75643539 2.67040777
H 1.56772947 0.51500446 -10.42701340
H -1.19378805 2.00247431 9.66778183
H -3.27482438 0.87105340 -4.47138786
H 0.74389464 3.45859361 -1.99965584
H 1.02609611 6.99113035 3.45473170
H 1.34194732 3.20137167 4.51443005
H 2.78294921 7.36932087 9.18967342
H 5.92974377 -1.86848271 -5.53754759
H 2.12228393 -4.58852577 -1.13040102
H 4.83385277 -9.89388371 1.51554883
H 5.67226028 -0.37422249 5.24908876
H 5.61216354 4.84596205 -6.56990433
H 8.56767082 -0.49146286 1.22207582
H 6.58054781 4.39850903 0.51654959
H -3.19606924 1.11396754 2.82126141
H 0.63193899 -3.41028070 -0.91763121
H 7.96934748 -3.54196119 2.13673687
H 1.74097514 -0.92086595 6.69944048
H -1.13331711 5.78586578 6.10573339
H -1.91842413 9.74523258 -2.08728623
H 2.80697727 2.80140281 -2.73144817
H 1.19931006 4.90952444 -4.26542044
H 10.67971516 -1.24515569 0.58503294
192
Energy/monomer =  -0.369864  +-  0.000949159  eV
O 11.05754471 11.24457550 12.34906959
O 5.79856109 1.97926808 5.48408890
O 9.01395320 10.67275942 2.87047959
O 8.97997713 9.10739421 5.91882420
O 2.63132286 4.56063462 4.71828223
O 5.69102955 11.87224680 6.57217026
O 11.61573667 4.51336860 11.35232616
O 11.29084337 9.10661626 2.68142700
O 3.57163715 3.13332939 6.80632210
O 1.31925774 9.66788483 1.36856842
O 8.16353034 6.05373764 10.74211884
O 8.46547127 8.38251304 0.74253845
O 3.32550526 6.54480410 6.34881258
O 5.41457462 2.86162519 1.96320331
O 3.48964691 9.45609474 6.71524191
O 0.34396929 11.28020728 8.87808728
O 2.24781037 12.38593197 2.88645554
O 7.66998100 2.14318562 0.49895024
O 2.95454073 4.16153335 1.79557407
O 4.89260960 1.01644515 9.38086534
O 1.31862068 6.16851806 9.22358131
O 8.35125923 4.87410307 0.97842771
O 12.19624830 4.66081238 4.35534668
O 11.43115902 2.40775013 8.09163666
O 6.10595799 10.58818054 2.44847775
O 5.10890579 7.33366442 3.03278923
O 2.58638144 1.52360725 10.79424203
O 10.00393390 7.74272156 9.23524284
O 5.98575782 6.33615637 6.90549946
O 10.90503025 3.64810943 2.19891358
O 2.14007949 7.01090336 0.99120712
O 6.02364493 12.25504398 11.97953606
O 0.86561978 3.53110886 9.60140991
O 3.14369297 7.85805702 10.97946167
O 0.29681253 7.29067420 4.46216011
O 10.23028755 3.75495338 5.90805102
O 5.63465118 4.18081665 8.61741257
O 4.87569618 0.64053726 3.27322960
O 8.46753025 1.63749314 5.62946415
O 5.73669815 10.83774185 9.20087623
O 1.84039438 0.83894682 7.66152430
O 9.62709808 11.88298034 6.79552269
O 6.80417633 4.82405090 3.29587555
O 8.19338513 3.51799298 9.61527658