96
lattice vectors: 9.865 0 0 0 9.865 0 0 0 9.865 Energy/monomer =  -0.3513  +-  0.000913858  eV
O 5.07073593 5.98522806 1.99074030
O 6.96930218 3.65419388 7.69751453
O 7.07114363 0.38541618 6.31931973
O 9.21707249 0.60753405 0.85845739
O 2.80207729 8.11080360 8.04087448
O 6.30238819 8.51380348 0.28597444
O 3.06945777 3.75312948 6.44377136
O 4.92952299 5.59797001 7.71687841
O 3.00636864 2.28544617 3.28489971
O 5.43206596 1.29600477 9.01845360
O 5.73688364 2.45922589 3.73790503
O 0.43886620 7.24681759 6.93701649
O 2.97921991 1.60385466 0.31199196
O 6.17979431 9.74389553 2.92950201
O 7.81284142 6.60153103 8.99971962
O 2.49865532 5.32045507 2.67103815
O 7.31650305 6.90478277 3.30298328
O 8.81621552 3.30051851 4.64679909
O 0.19844723 0.21932974 6.09385014
O 2.07528901 3.93826103 9.01441956
O 1.82536161 7.35551262 4.49379349
O 0.24929428 4.54504395 6.72563934
O 8.53362751 5.55051613 1.47352052
O 4.05105782 9.05945301 4.29349422
O 2.91260624 0.95893687 6.15000582
O 3.33805180 8.83594131 1.40738785
O 9.64161205 2.24009204 8.21248245
O 6.24836349 4.95267439 5.06015348
O 5.23794460 8.03899288 6.54741335
O 6.24564791 3.63376021 1.14055872
O 0.66831440 8.69901180 2.04291368
O 0.97948104 6.47605038 0.23600960
H 5.47266340 5.41048479 1.37726617
H 7.76904678 3.41141653 8.15803623
H 6.51683569 0.89463365 5.71413946
H 9.11190128 1.36154389 0.33284441
H 3.63785648 7.76187134 7.74992561
H 6.60682964 8.87906742 1.14078999
H 2.18450260 4.12506390 6.16728687
H 5.66505432 5.16413927 8.15059280
H 2.79496050 3.22795010 3.19227219
H 5.95717478 1.65866745 8.28544903
H 4.76279688 2.33512568 3.59089351
H 1.35015965 7.35265350 7.26723862
H 3.82191563 1.62987852 -0.06028282
H 5.39901018 9.41284370 3.40269041
H 8.57145596 6.90485859 8.46935654
H 2.25583696 5.87605810 1.85574365
H 7.31806421 7.83650684 3.40219688
H 9.30960655 2.96997213 3.91736698
H 1.09746647 0.43695515 5.93445396
H 2.44687462 3.81776476 8.16495132
H 1.50180137 7.42050362 5.36343765
H -0.14175034 4.10964870 5.91322088
H 8.20640278 6.24974823 2.08278370
H 4.50658369 8.61413479 5.01351023
H 3.18501997 0.38297644 6.85079622
H 3.42589712 9.76232147 1.29618788
H 10.44588184 2.42511582 8.71880341
H 6.45660734 5.82238102 4.75356150
H 5.94747353 8.66842175 6.75902081
H 6.10870647 2.99982285 1.90240943
H 1.61453676 8.92202663 1.95631087
H 0.20574865 6.06915855 0.63948917
H 4.29230547 5.50148201 2.38133121
H 7.19632435 3.77704048 6.80754805
H 7.89046621 0.49394438 5.86833906
H 8.61856461 0.00654888 0.42679650
H 3.04515648 8.54183960 8.83652496
H 6.74352312 7.68866539 0.01975211
H 3.05599904 2.81985664 6.20426559
H 4.37021732 4.88033485 7.37394810
H 2.86957741 1.92318964 2.46056271
H 5.76271439 0.39199132 9.23204327
H 5.71681070 3.20236135 4.33737850
H 0.36180931 6.28662968 6.90553951
H 2.50401211 2.41151643 0.03694036
H 6.28733921 10.60690498 3.31242228
H 8.14466572 6.17615747 9.85374928
H 2.32352066 5.87275410 3.53010368
H 6.50129271 6.76037025 2.74671173
H 8.21753120 4.02485323 4.31665134
H 0.17539406 -0.69561619 6.37414455
H 2.02195740 4.90535402 9.15301132
H 1.16098309 7.88878393 3.98919296
H 0.29467010 3.78147531 7.32770681
H 7.86576223 4.90864420 1.61348271
H 3.37354660 8.40744495 4.11785507
H 3.26618695 0.51552308 5.33614063
H 4.20596886 8.52754688 1.06519771
H 9.77668190 1.55341518 7.57285404
H 5.67656326 5.00484085 5.87013102
H 5.56287575 7.19080162 6.80881691
H 5.97900295 3.09268880 0.40766400
H 0.23899707 9.51721478 1.69478559
H 0.85356140 7.25910330 0.75218296
96
Energy/monomer =  -0.372682  +-  0.000905188  eV
O 0.99598312 8.98037910 7.09971857
O 2.83584023 8.14624119 2.79379416
O 7.44755125 4.00212240 3.05812979
O 6.69318008 2.83127117 0.63476378
O 2.53875017 6.67281628 0.04338737
O 3.56731367 3.16994238 8.75746250
O 5.52910519 7.45703411 2.87966156
O 5.03471088 4.88548279 0.98102605
O 7.45297241 0.36042112 1.25968456
O 0.10708714 0.88696474 5.29630041
O 3.50801659 8.00670433 7.78373814
O 5.75835085 3.07541299 7.01463032
O 7.63035583 9.19081306 8.48182869
O 9.39021301 6.57312679 7.66094971
O 5.11198711 2.91504860 4.52843952
O 1.46846485 5.42982960 5.78686810
O 4.85872030 0.22831114 8.89475155
O 7.52069187 9.38043880 5.73971653
O 4.07210255 6.20169544 5.81624413
O 9.27972126 2.03599858 2.77894354
O 8.77698612 3.23934460 8.60967064
O 5.66026974 0.46260318 3.72644806
O 7.38979578 6.90304089 1.02767766
O 3.71224427 5.04548645 3.34909558
O 9.76578808 5.10997248 0.43151379
O 2.64111972 0.88839722 1.06693769
O 1.60039151 3.34958124 1.78278542
O 0.72317773 6.45176601 3.11907101
O 8.02612495 6.73767233 4.71898317
O 1.12208116 2.92760515 7.13467598
O 6.87548923 5.69819403 6.85566950
O 0.52914715 0.54003066 9.42149067
H 0.68823242 9.61755371 6.44395351
H 2.49255991 7.90889549 1.94481909
H 6.96028423 3.60647273 3.74070406
H 7.22695589 2.98994660 -0.13565736
H 2.86414814 7.07336903 -0.76621926
H 3.53776312 2.26561451 9.05669689
H 4.58059072 7.48009872 2.83962035
H 5.53951788 4.11309242 0.75610435
H 8.23686504 0.71759850 1.67532158
H 0.01667881 1.10587704 4.39762402
H 2.57442808 8.36223984 7.68652916
H 6.32032776 2.46460319 7.43225288
H 7.57286119 8.79241276 7.60502911
H 10.03370667 6.20611238 7.06885433
H 5.19486475 2.92938828 5.52630234
H 2.27202702 5.94095516 5.83976984
H 4.34787703 0.36269873 9.67908764
H 7.77064276 8.50714397 5.48193932
H 4.93924522 6.08654976 6.16688728
H 8.76049232 2.77089882 2.94692874
H 9.09155941 4.05880260 9.05579281
H 6.27688789 0.20187718 4.39279699
H 7.54561281 7.71044588 0.53429693
H 4.21017504 5.05198288 2.52014494
H 8.93638897 5.50607061 0.67108345
H 2.52187014 1.78627872 1.27686894
H 1.13480449 3.92138648 1.18239212
H 1.47690320 7.03902006 3.14362335
H 8.68573761 6.32558060 4.18181610
H 1.20101953 3.68846655 6.56796551
H 7.15373850 5.99305820 5.97323799
H 0.37792140 0.05309327 8.61239624
H 0.39243603 8.22785187 7.23379517
H 2.84161043 9.08782101 2.82308984
H 7.10951996 3.69683647 2.26979971
H 6.88860607 1.92994094 0.98774821
H 3.33393621 6.21117353 0.35191825
H 4.07278252 3.72746634 9.37452507
H 5.62194729 8.22490311 3.37067652
H 5.66400099 5.61815691 0.87200171
H 7.75508308 0.17543732 0.38630581
H 0.66012001 1.59919059 5.56325626
H 3.65280294 7.48487473 6.99172497
H 4.94872618 3.14107919 7.55542374
H 6.74774456 9.41631699 8.63032341
H 8.58114052 6.27604771 7.33198357
H 5.31478119 2.05774784 4.14430523
H 1.19258785 5.77436829 4.94209671
H 4.49708319 -0.50868827 8.45576763
H 8.27215767 9.97738361 5.65826178
H 3.99466634 5.86720324 4.90265608
H 10.09462833 2.36984420 2.41945219
H 9.38361835 3.14128399 7.91649342
H 6.14810944 0.60703695 2.95768666
H 7.00621939 7.10256863 1.90132523
H 3.98365188 4.22784948 3.82574821
H 10.15878296 5.66539335 -0.23021412
H 1.82240915 0.66808414 0.55835605
H 1.82933366 3.90892816 2.52356195
H 0.42170367 6.48168373 2.25652313
H 7.36277628 6.91903400 4.04822254
H 1.85609877 3.02325201 7.72368622
H 6.61354160 4.82478571 6.71640348
H 0.34695399 1.42279971 9.11540508
96
Energy/monomer =  -0.364002  +-  0.000796826  eV
O 3.94374800 1.64171553 9.16140366
O 8.60598946 9.78409386 2.43229055
O 5.88397503 2.60771799 7.61208153
O 0.04575116 4.07874823 7.00724697
O 5.91042614 9.84183884 0.00514695
O 3.41562510 2.81617355 4.84431553
O 3.22463989 4.24927235 7.20336676
O 5.01006699 6.79157639 3.42789125
O 0.26864761 2.14611077 9.26174641
O 7.59543514 0.80579430 6.31487274
O 0.07999134 3.40939856 2.35131764
O 8.52856827 7.52050161 8.95106506
O 1.49310589 6.18111563 5.43806648
O 6.51093864 2.22925615 2.69657135
O 8.05756950 6.34764767 5.40159130
O 4.13241100 6.85723400 6.12708187
O 0.08553959 9.73712349 7.69846249
O 4.26543713 9.31378078 2.36993837
O 1.82579195 0.91557407 5.90413570
O 7.50895309 2.25983691 9.75025558
O 5.74717522 7.27649832 8.48163319
O 4.95826435 0.53659481 4.89718962
O 4.41879654 4.03012514 2.54610991
O 9.36602974 2.34021568 4.77933502
O 7.59112740 7.15752411 2.68676281
O 8.56229877 5.52886486 0.73488134
O 3.65107822 9.38249588 7.11146736
O 4.10931253 4.70917225 9.71045876
O 1.56824434 9.28458405 3.32157946
O 1.66028094 5.92222309 9.78184891
O 2.24254656 6.47398758 2.67728615
O 7.39442921 5.01693153 7.61950493
H 4.39728737 2.22521853 8.56660843
H 8.00144100 10.39498138 2.76016855
H 6.28117371 3.43500614 7.43037987
H -0.78634930 4.40889263 7.16299438
H 5.24679995 10.54807663 -0.07778422
H 4.05465508 2.06299210 4.96102667
H 3.16969490 3.66960144 6.42283535
H 4.58237791 7.47026539 2.98154211
H 0.34316087 1.23997974 8.99170303
H 8.18175793 1.33500445 5.72595787
H 0.37220383 2.99998856 1.57834947
H 7.69984245 7.88640594 8.70092010
H 1.34434605 5.39153004 5.90203714
H 5.71121407 2.72925758 2.65757704
H 9.03306866 6.42041302 5.26395702
H 4.70522118 6.82181931 5.32027721
H 0.65756530 10.05802917 7.02636957
H 4.78845024 9.85206413 1.76196098
H 2.08958721 1.78417301 5.63005447
H 7.18394089 2.44517326 10.63300610
H 5.16503525 7.39637852 7.72117329
H 4.79298973 0.12311359 5.81614637
H 4.76733589 4.86976337 2.90099096
H 9.62635803 2.71560478 3.90309811
H 8.21912670 6.76031017 2.06800461
H 8.65799427 6.32723045 0.12508811
H 3.45964217 8.48309994 6.76627350
H 3.70795417 4.29854250 8.88671207
H 1.63036609 8.32968330 3.17926335
H 0.90780789 5.41202497 10.11280060
H 2.03492355 6.37734127 1.71356678
H 7.09644032 5.86045885 8.03353882
H 3.63965607 0.85944808 8.72007370
H 9.40210629 9.83552361 2.91899896
H 6.31664944 2.36589527 8.42357349
H 0.61711830 4.38774776 7.68083811
H 6.65669155 10.41389561 0.06991183
H 3.55850077 3.17256927 3.96223307
H 3.67995262 5.07697392 6.94987679
H 5.92231464 6.90001297 3.01263785
H 0.41164941 2.66279292 8.49557114
H 6.90066242 1.43296802 6.61457062
H -0.50061131 4.12743711 2.15940571
H 9.13529301 8.11368656 8.60824585
H 1.85737896 6.02276087 4.58407736
H 6.96403074 2.53523302 3.43735361
H 7.63959026 6.65317106 4.63059139
H 3.21943665 6.71549702 5.79703617
H -0.81614125 9.72353840 7.31724548
H 4.25373459 9.65780258 3.28495026
H 1.79799044 0.33555698 5.13441896
H 8.50509071 2.23587728 9.72275162
H 5.66736984 8.20036983 8.80185318
H 5.85405064 0.32858640 4.78891182
H 4.43296242 4.01733923 1.57012975
H 9.66669750 3.00247097 5.36320591
H 7.76457357 8.11943436 2.55046368
H 8.34588146 4.77343082 0.15375133
H 3.00376987 10.05013847 6.73782253
H 4.65865278 5.33647203 9.30597878
H 2.19159102 9.57138729 2.65382195
H 2.46997428 5.39411354 9.84130669
H 3.06455421 5.98935413 2.79528570
H 7.50978994 5.38027430 6.73120594
96
Energy/monomer =  -0.369564  +-  0.00075334  eV
O 1.27392638 1.65808332 3.55392504
O 8.46279335 4.85288954 1.39097369
O 2.36671066 5.45733833 1.11128998
O 1.81131446 6.44684839 8.54271317
O 8.80356789 0.01502419 3.07524991
O 8.76654816 5.98895550 4.08264303
O 0.95412731 3.19722748 1.04083824
O 7.28217983 2.28799105 8.81959534
O 3.62270117 2.21118021 9.80743217
O 5.70555019 9.39296532 5.53166485
O 7.82058334 1.91435575 5.96893167
O 9.81165218 0.67948055 9.49883461
O 3.64615059 2.40877771 6.27628708
O 6.45400381 4.78831482 6.98589325
O 5.26122189 0.03952330 2.82412624
O 0.87849998 7.38064098 2.38560343
O 1.24382961 8.85351467 7.72545433
O 9.13087273 8.45801735 5.55276823
O 8.72304058 6.12563610 8.59169102
O 9.75700188 3.58217430 4.98968887
O 3.00814867 9.58356762 5.91644764
O 5.96822834 6.72857523 4.54409647
O 5.95054865 3.42538691 4.77809286
O 6.56054068 2.87813854 2.19320488
O 4.97162008 6.37690401 1.78018761
O 2.27711105 9.44683456 1.61019349
O 2.49459004 7.14299917 4.86146450
O 4.00050879 9.50264645 9.62943554
O 5.52390337 4.54758072 9.57279015
O 2.01701474 4.67949867 6.34941864
O 6.73647499 8.01568413 0.41209072
O 6.35364151 9.80941486 8.37542057
H 1.45949459 2.11533689 2.73511410
H 8.28108597 5.14717102 2.30884600
H 3.24776602 5.81881809 1.36067200
H 1.84102535 7.39732647 8.28854465
H 9.60258675 0.50547409 2.96798491
H 7.86884403 6.23435211 4.35270357
H 1.53432846 3.93842602 1.01177025
H 8.17135715 2.25662041 9.08375263
H 2.87556767 2.69751596 10.15205383
H 4.77420616 9.36232567 5.88294029
H 7.84158707 0.98333549 6.11234665
H 9.73438358 0.13543034 10.26346684
H 3.71385574 2.33292961 7.22303677
H 6.16127110 4.68905258 7.91417122
H 5.87048817 -0.04676361 2.11634827
H 1.08956909 6.63477993 1.83903801
H 0.88098317 9.52381325 8.31445503
H 9.15599442 7.53800964 5.29573965
H 8.57941914 5.57679653 9.38617516
H 10.46953201 2.98822284 4.56161833
H 2.84341717 8.86221504 5.31848383
H 5.92994595 7.56972647 5.04192638
H 6.16755247 4.04076052 5.45831251
H 6.88514614 1.98181772 2.38135052
H 5.38348961 7.11244678 1.34748554
H 2.95236063 9.35055733 0.83199304
H 2.45691729 6.21236038 5.03617096
H 4.73948193 9.48234940 8.98106289
H 6.28135920 4.07796192 9.93226814
H 1.26494503 4.44358826 5.68815041
H 6.66824627 8.71454811 -0.26470956
H 6.43782520 10.77719975 8.54500008
H 1.75459242 0.80909890 3.43497014
H 7.94124746 4.02564669 1.45400739
H 2.21671820 5.84819221 0.21240234
H 2.15117598 5.81516361 7.91376352
H 8.77166653 -0.54370689 2.35951281
H 8.97873116 5.13349342 4.49065828
H 0.18411255 3.66157532 1.29542732
H 7.43331528 2.61322021 7.88908672
H 4.38376999 2.79371238 10.02388096
H 5.55734444 9.57802677 4.53972340
H 7.08056259 2.12305260 5.41349363
H 10.45204926 1.34083271 9.79201412
H 3.35891533 1.55820417 5.85103893
H 7.26396322 5.28151608 7.01906013
H 4.44963884 -0.08999281 2.34129810
H 0.26127625 6.97964191 3.03960419
H 0.55012470 8.50627518 7.14925098
H 9.06165123 8.98359871 4.77457094
H 9.65226746 6.40773773 8.66280651
H 9.11428642 2.92184353 5.21763134
H 2.46855569 9.35033035 6.69089460
H 5.69971180 5.99784851 5.11904335
H 5.10485363 3.01769352 5.15352392
H 6.38247252 3.22405720 3.08261013
H 5.29469967 6.40522051 2.70583725
H 1.96659946 8.54686928 1.52534842
H 2.15336013 7.27672100 4.02500248
H 3.91212034 10.46137428 9.60484028
H 5.28173351 5.07273483 10.29537010
H 2.60360765 3.99129009 6.13620090
H 7.41541958 7.44483519 0.10472257
H 6.39905834 9.70274544 7.45837641
96
Energy/monomer =  -0.372735  +-  0.000861145  eV
O 4.66189814 6.40408897 6.66030788
O 9.65748692 0.19734477 7.52384520
O 2.12813616 1.99067509 6.40193081
O 8.86587524 8.10509300 5.85062885
O 6.93396091 2.88240242 3.59028649
O 4.18581724 1.45641327 8.32752323
O 3.33654499 8.96231461 9.26750755
O 4.69864607 4.14349604 3.41245985
O 2.36491036 4.95819139 9.64436626
O 6.55555820 0.10913941 7.10586357
O 0.23460388 1.90577376 0.69896030
O 7.78883171 2.65921974 7.56169128
O 5.47430801 1.00263023 4.94305229
O 0.58124882 3.22701645 8.23497295
O 2.44139862 0.81108475 3.94404602
O 6.32184792 6.25607491 1.78066874
O 0.52469093 8.86454964 9.86166000
O 9.23511314 4.38278389 4.67207909
O 2.86733150 8.45726681 6.42175293
O 1.17039680 6.33959150 4.94153309
O 6.94179773 5.14070892 6.80635738
O 8.43536568 8.00692844 1.70658422
O 2.91677094 4.41758537 5.62159300
O 4.59521723 6.36343861 9.38935280
O 3.07404804 3.03172493 1.44180679
O 8.30325222 9.68476105 3.71638608
O 1.30490160 6.30205154 1.96310186
O 5.21289921 0.84119129 1.94126427
O 0.21993542 1.97886753 3.42127562
O 3.31014347 8.32414913 2.40827274
O 6.32636166 2.73454165 0.27027953
O 7.46090841 7.56516933 8.25871754
H 4.90075064 6.35275936 7.56617975
H 9.25726700 -0.50721824 7.00549841
H 2.75896788 1.82308447 7.09816742
H 8.46896076 8.74929047 5.27325201
H 7.60786486 3.54372215 3.79805613
H 4.95922995 1.04428482 7.96036530
H 3.71885872 9.82826805 9.06043911
H 5.49697399 3.66539335 3.55250025
H 1.86417913 5.20698500 10.40421295
H 6.14942265 0.39269891 6.25791454
H 0.06163311 1.86354649 1.64238262
H 8.73094463 2.60854244 7.62287331
H 4.75504494 0.91085529 4.35960770
H 0.31112179 2.75064468 9.03440571
H 2.46807337 1.01755333 4.84869671
H 5.63379097 6.35362148 1.12660134
H -0.28701976 8.46070099 10.31424618
H 8.75238419 4.51715851 5.48822737
H 3.45124888 7.71482754 6.28191853
H 0.69006443 7.18047476 5.10403395
H 6.15688038 5.48566961 6.41828299
H 7.84014511 7.36292124 2.03011322
H 3.54612923 4.41494083 4.89888477
H 3.83141351 5.75760937 9.34815979
H 2.87014294 3.65774727 0.75290489
H 7.43844748 10.01642609 3.86063457
H 0.47299758 6.69577646 1.73661804
H 5.70378923 1.49139309 1.43967927
H 1.13087368 1.57092476 3.44909954
H 4.12543011 8.59350872 2.78346062
H 6.94626999 2.62255430 -0.41316843
H 7.32366610 7.61807203 9.22895432
H 4.18782806 5.61129045 6.39669657
H 10.41284370 0.41684318 7.01944017
H 2.46576023 2.78994226 6.01462936
H 8.14850807 7.65512466 6.33152533
H 7.38604641 2.55262566 2.84743261
H 4.55615282 2.22228718 8.78427315
H 2.36754131 8.98063469 9.44417477
H 4.10103798 3.86597061 2.72783899
H 1.85058463 4.36658382 9.09731770
H 7.32290554 0.64637125 7.22478485
H 0.43149853 0.95550942 0.51843452
H 7.44594860 3.44294071 7.17024040
H 5.90952301 1.84008217 4.67193699
H 1.07810628 2.68202019 7.66401482
H 2.36154652 -0.10884094 3.84265518
H 5.87066460 5.94517803 2.62432957
H 0.22475028 9.05986595 8.95122337
H 9.86445999 5.11931992 4.56451941
H 2.99817967 8.60779381 7.30081177
H 1.22241497 6.23649454 3.97233009
H 7.20173359 5.86294985 7.40066433
H 8.31393433 8.74257660 2.30930042
H 2.25817370 5.12346077 5.43841267
H 4.11682034 7.19132900 9.34621334
H 2.26730537 2.54022765 1.40166855
H 8.84482670 10.42278862 3.83600163
H 2.00125933 6.94588900 1.97996807
H 4.40990257 1.25090313 2.06824827
H 0.14835072 2.76371002 3.96248436
H 3.30400276 8.79090691 1.52369869
H 6.16671944 3.66387296 0.35044175
H 7.11144495 8.43763447 7.93996096
96
Energy/monomer =  -0.329858  +-  0.000796264  eV
O 3.42467189 7.97934628 1.23377228
O 2.89730883 5.11305428 1.83962154
O 9.16714859 6.93386412 4.89866447
O 9.50538635 0.17017166 5.36980391
O 3.68296766 6.59700871 4.87912130
O 2.50672030 2.17960453 8.69930649
O 1.85120869 8.62803078 5.61514807
O 5.35279846 3.97056961 8.79708004
O 0.69967961 9.29907703 2.29383612
O 4.36600065 9.60787296 8.49501228
O 7.70386124 6.57568550 2.01692581
O 2.32960033 6.15130234 7.65705967
O 4.32453918 3.87511253 6.16317177
O 5.41472864 9.28653908 6.04170418
O 1.42237759 4.80561924 5.38808441
O 7.76103973 2.25274849 6.57103252
O 8.52882385 5.24316788 7.04450178
O 4.95288372 6.89043903 8.08139133
O 6.85886478 0.99633431 4.17636967
O 6.52739334 3.73530698 4.25681734
O 9.76383495 7.62883997 7.56722879
O 8.79960251 8.45968056 0.15265931
O 2.70096874 1.42175102 1.67316914
O 1.56182921 4.49558830 9.40915012
O 6.88317013 1.67370117 9.26127815
O 5.44258499 0.97668552 1.70471287
O 5.61606884 4.40213966 1.56275368
O 9.00311565 3.28100109 0.14752199
O 6.33168030 7.19486380 4.39326382
O 2.65719032 1.51502573 5.92650127
O 8.80600834 4.01026678 2.73153019
O 0.45987096 2.47581387 4.20431328
H 3.38942146 7.82857990 0.28066730
H 3.79878783 4.79473209 1.78681755
H 9.35497665 7.45636129 5.66667938
H 10.37022209 -0.39771166 5.47481585
H 4.07433844 5.91373444 5.41408730
H 2.21750617 2.06489086 9.60042667
H 2.46707535 7.89343834 5.50337315
H 6.12312937 3.35682392 8.73850155
H 0.04752439 9.13582039 1.63849831
H 4.61245871 8.74196720 8.25252819
H 7.23752975 7.09749413 2.65824699
H 2.23905802 5.60359287 8.49890518
H 5.12390900 3.90309143 5.64288521
H 4.86724758 9.64238167 6.73733902
H 0.95804405 5.67280149 5.35891342
H 7.27875137 2.62086487 5.85251856
H 9.10989380 4.58648348 7.37085915
H 4.08588028 6.58279991 7.79441738
H 7.44536495 0.25401223 4.09040928
H 6.13280296 4.03530264 3.44279933
H 9.25671673 6.83214378 7.38205290
H 9.38073540 8.14014530 -0.51846993
H 2.36194253 2.24543762 2.00949502
H 2.15546322 4.67934132 10.16781712
H 7.64012432 2.14087844 9.56171608
H 6.06108761 1.16779995 0.86654949
H 6.29704142 5.06893587 1.54918575
H 9.74755001 3.78314209 -0.12238900
H 6.07840824 7.87955618 5.05277538
H 1.71907520 1.67407143 5.52148151
H 7.98296261 3.80989718 3.20207119
H 0.91021812 3.25221729 4.62282085
H 4.33448553 8.04791451 1.40209866
H 3.05172610 6.05078411 1.96061230
H 9.38727760 7.51710033 4.16379547
H 9.76785851 0.92842627 4.81866741
H 4.36697865 7.00215435 4.39721346
H 3.47111940 2.04114723 8.63535500
H 2.35659599 9.41394234 5.74256134
H 4.97738171 3.88603115 7.91746902
H 1.41513562 8.64681053 2.24151516
H 3.49414301 9.60199642 8.93563461
H 8.16450310 7.16399479 1.38146210
H 2.12506104 5.42601585 7.04703617
H 3.84429932 3.10543156 5.86692905
H 5.85651827 10.02978516 5.58200359
H 2.18095493 4.93493080 4.89715290
H 8.29363060 1.53948593 6.24938107
H 8.75782394 5.25111341 6.08390570
H 5.41055202 6.07783318 8.07436657
H 6.37408447 1.04854286 3.32588768
H 6.58651352 2.82170630 4.04295444
H 10.66383553 7.34073448 7.64947510
H 8.09446716 8.93861389 -0.33855277
H 1.95466554 0.79277706 1.85851860
H 1.89199114 3.77179432 8.94717121
H 6.97270870 1.65997398 8.24086571
H 4.53203869 1.37302685 1.55311489
H 5.63030672 4.12493372 0.62971687
H 8.93912888 3.46593857 1.08991289
H 7.16707802 6.86666298 4.66529989
H 2.58918381 1.75996101 6.87620544
H 8.80025196 4.95516157 2.52533484
H -0.20233074 2.85299873 3.57130718
96
Energy/monomer =  -0.373625  +-  0.000709656  eV
O 5.26290226 4.10257530 5.68385506
O 0.81222475 0.78579903 4.57730007
O 8.38438892 8.62761784 5.63336945
O 9.72585297 1.76647341 1.52046585
O 2.96671677 5.21759510 6.05309677
O 6.47731352 0.54756355 9.34336090
O 6.27126503 5.74320793 3.82629251
O 3.38498449 7.55866146 1.82948112
O 5.86657810 8.37470055 4.34765244
O 7.32665253 1.89669883 3.28956056
O 2.11079216 7.48832130 7.92692137
O 9.45919037 6.00096226 1.67952430
O 4.62285805 4.15483952 9.19225311
O 4.89190769 1.54870415 4.78481865
O 2.14685392 2.83911800 9.08817482
O 1.02436447 5.55934525 9.37112999
O 9.45204258 8.97097778 2.55914116
O 6.92216492 4.64570427 7.73149681
O 1.82237530 5.77886248 3.35977697
O 0.42234802 4.53347397 5.82559681
O 3.11403704 9.40724277 3.99435854
O 0.63057518 1.70523500 7.01020098
O 2.33972216 2.79324150 2.62415838
O 3.03670359 9.48518753 9.49292564
O 5.75873756 6.30204630 1.01795959
O 8.47374821 4.23794651 3.46887493
O 6.85812664 8.85512257 1.59412956
O 8.95591164 6.38191032 7.30410147
O 4.59701920 9.72085285 6.98027325
O 4.93791580 2.47461772 1.45249367
O 8.50258255 2.38535476 8.94719982
O 1.29455686 7.80295753 5.25481033
H 4.32368994 4.48743105 5.85024261
H 0.97567552 1.13124371 5.45583534
H 8.65543461 9.40892982 6.17657089
H 10.55811691 2.25478959 1.61581326
H 2.97623253 5.59602737 6.93339157
H 5.87079382 1.12920284 9.83163452
H 5.95720768 6.66333771 3.98537540
H 4.28995752 7.20258904 1.73327827
H 6.71484661 8.38423824 4.87995720
H 6.63446522 1.66893935 3.92388439
H 1.63617897 6.79747581 8.45900345
H 8.94501781 5.32744980 2.13311625
H 4.97861671 4.94099045 9.59226608
H 5.19075823 2.39219666 5.03620148
H 2.99552202 3.19955635 8.96550751
H 0.59757042 5.69563389 10.22723389
H 9.71595573 9.28583622 3.47559357
H 7.65347481 5.27110195 7.68616295
H 1.83386040 6.16941309 4.23819160
H -0.06964493 4.22928953 5.11828995
H 3.42564797 8.74264622 3.36132884
H -0.03522682 1.55978572 7.71391916
H 1.80343878 2.52825308 3.37558079
H 3.36370373 9.05877876 10.32120991
H 6.40545559 6.96163559 0.90757370
H 7.97325897 3.39223862 3.39718819
H 7.75289345 9.08157063 1.94492674
H 9.16362000 5.90258598 6.49754620
H 3.93942451 9.75463295 7.66957092
H 4.57268333 3.08760548 0.78061581
H 9.05985260 2.33526802 9.74306202
H 0.40876383 8.16851902 5.13872814
H 5.85341835 4.32995987 6.41179085
H 1.62426114 0.39914894 4.30064201
H 8.37151051 7.92575312 6.34323978
H 9.33548737 1.69888246 2.35837936
H 2.04876518 5.11684227 5.73185587
H 6.71181774 -0.07982349 10.07189751
H 5.86381054 5.19137239 4.56901884
H 2.89829540 6.84347057 2.16707993
H 5.19654131 8.62923813 4.97672081
H 6.69849253 2.32262921 2.72814465
H 1.71138763 7.62564468 7.00686502
H 9.07463646 6.82663536 2.01673818
H 5.36457634 3.99918842 8.63247871
H 4.72358370 1.07846642 5.60718918
H 2.12305212 1.93777752 9.49208927
H 1.19883728 4.59487152 9.33049297
H 10.02136993 9.38741970 1.98855782
H 7.40580940 3.93319416 8.17425728
H 1.02325916 6.13633871 2.96972275
H 0.32596207 3.81589484 6.49306345
H 3.79151344 10.07621098 4.18556452
H 1.39744377 2.13058877 7.46177673
H 2.58078098 3.67873287 2.95283699
H 2.84498787 8.69985390 8.92976093
H 6.01073456 6.07027435 1.92154312
H 7.75983572 4.73624992 3.86948681
H 6.25459290 8.81517315 2.36184645
H 9.60961437 6.18704987 8.00501347
H 5.38998318 9.39839745 7.35002041
H 4.18242168 2.32547474 1.95711708
H 7.90287304 1.63161349 9.01256466
H 1.90013874 8.32997608 4.78577232
96
Energy/monomer =  -0.371498  +-  0.000927011  eV
O 6.14492846 7.34165955 6.24255371
O 8.67823410 8.74871349 1.64595604
O 0.77719468 1.87327051 8.54322338
O 5.93870735 4.81694174 7.43220329
O 6.93077230 6.19338417 3.95246196
O 8.63794994 9.74444485 7.52402115
O 4.06012440 6.76696587 0.39968470
O 0.01551628 1.52361584 1.16199875
O 7.63338470 3.48314857 5.70384836
O 2.79502630 4.47920179 1.66863525
O 0.54298973 6.93140221 3.27662849
O 7.16936874 6.51221657 1.10151875
O 5.91968155 1.78519535 4.48134518
O 2.06932330 9.10313034 7.36826420
O 0.01190376 5.33352566 1.10263729
O 1.65479469 2.07166576 3.35586929
O 4.70679474 4.55615187 3.74360585
O 4.57611561 8.41480732 8.02260494
O 3.84602451 2.27840400 0.53195858
O 6.20073891 0.51378554 7.14920425
O 6.48326492 2.03536129 9.50312138
O 1.89003754 5.12966061 6.60846806
O 3.85734963 0.59479046 2.66857624
O 1.40271664 8.82254982 0.09197528
O 7.33013058 1.13869476 2.13249207
O 0.35125032 4.07648945 4.75955582
O 0.05469673 7.87043190 5.79243231
O 3.81800628 6.60213661 5.27909470
O 8.50208092 3.44651699 8.37526798
O 3.28218651 7.72100163 2.87476444
O 9.66217041 5.80996227 7.84817696
O 3.00050545 2.39779806 7.24758530
H 6.33384943 6.49504089 6.64656258
H 9.00946140 8.24594975 2.39396667
H 1.68580437 2.06432295 8.25829601
H 6.24531031 4.32273722 6.63455963
H 6.76587486 6.66598606 4.71861506
H 9.41550827 10.11748219 7.88510132
H 3.84552002 7.12941980 1.30827904
H 0.04996777 0.55138111 1.07200718
H 8.54081535 3.79827023 5.40513849
H 3.07135201 3.66667056 1.24376512
H 0.20758629 7.33361816 4.10571194
H 6.31412220 6.79743767 0.76069659
H 6.32387543 1.48871613 3.67140198
H 1.99180639 10.07476997 7.37613010
H 0.12583923 6.13015079 1.71841240
H 1.14637375 2.10816240 2.55884838
H 4.94409561 3.72270751 4.11466646
H 3.76136494 8.78262424 7.69456005
H 3.86852455 1.62375760 1.28019142
H 7.04697609 0.07104295 7.12114716
H 6.42296314 1.46218204 8.69347095
H 1.19199944 5.64922571 7.04688072
H 3.06218147 1.01560593 3.02952170
H 2.23894548 8.38172340 0.24214531
H 6.74637508 1.44631004 1.40477562
H 1.11768508 4.33998680 5.36428356
H 0.87068635 8.26173306 6.06471252
H 4.66622972 6.87800026 5.65725517
H 8.06233215 3.30066586 7.51925850
H 3.44199848 8.65946579 2.76256847
H 9.16652107 4.97510767 7.89218760
H 3.97072601 2.60069323 7.13146019
H 5.50758266 7.85108042 6.74375153
H 8.38728809 8.07123852 1.01079082
H 0.73592013 1.89472723 9.55093193
H 6.24610472 4.12352037 8.05185890
H 6.18849611 5.59880161 3.83992529
H 8.91890144 9.17641830 6.79764175
H 3.84164047 5.88606930 0.52454090
H -0.79777813 1.69934464 1.58720398
H 7.40254879 2.73744583 5.09497213
H 1.84813499 4.56252241 1.47511578
H 1.53777885 7.14581299 3.33839869
H 7.09379101 6.52495193 2.05546188
H 6.11545181 1.18142605 5.19311619
H 1.96445155 8.77774620 8.29256916
H -0.99536705 5.28128004 1.05613708
H 1.30070686 2.75249434 3.98326635
H 4.05323792 4.42741108 3.05161333
H 4.50353718 7.98605824 8.88556099
H 4.71231556 2.26720572 0.07989120
H 5.67221069 -0.18572111 7.55705786
H 7.29448795 2.51979637 9.46373653
H 2.48085403 5.80305481 6.21942425
H 4.53230667 0.78659344 3.34455776
H 0.98282146 8.65637684 0.92668402
H 7.72520924 0.33096504 1.95579910
H 0.34628040 4.72045517 4.08671284
H -0.07883433 7.17746973 6.41967392
H 4.06215954 5.83321571 4.77438307
H 9.27273750 2.96891022 8.42612743
H 3.73689079 7.41263294 3.62513733
H 9.96041203 5.87219334 8.79150009
H 2.64997792 3.28088808 7.08424187
96
Energy/monomer =  -0.36378  +-  0.000802918  eV
O 9.27746296 8.74703979 1.75051212
O 0.37165546 2.46468568 8.77923203
O 8.39006042 0.87259674 7.13841534
O 5.67123842 5.97350454 3.10782242
O 5.30523157 4.44654655 9.08716774
O 1.01251793 0.77083015 0.78457451
O 0.80670929 0.55302405 5.29678535
O 7.42601681 5.13367176 0.78488922
O 1.82653177 7.02748203 7.45395231
O 2.87343788 8.13203812 5.28456211
O 3.93504333 7.95796394 2.63615727
O 4.25955677 3.43636322 1.64103603
O 1.27774811 4.33727169 1.67820740
O 6.63915205 8.13867569 7.93581772
O 1.31913662 5.86502647 4.39927769
O 2.74514389 1.44012928 6.97735691
O 6.71861315 6.82370901 5.58595276
O 4.36747932 7.12373257 9.40983772
O 4.82442093 0.15396895 5.89215946
O 8.87027740 4.59516382 8.10737514
O 3.50502300 9.84209824 9.36271954
O 1.56289673 7.02329397 1.40834975
O 6.65397882 0.87720203 4.24962473
O 2.73879337 3.39942789 4.16568756
O 0.46362019 2.10671043 3.18076897
O 6.89250422 7.63817787 0.83065605
O 8.74866581 4.65478039 5.48500204
O 8.34870911 8.54286194 4.28444195
O 7.40975761 3.49031544 3.35771751
O 2.45128918 3.90236521 8.11797428
O 6.22754478 2.66346025 7.03812981
O 4.77650595 0.67388338 2.30511761
H 8.60409355 8.33110523 1.11425495
H 0.57570267 1.95090020 9.56859684
H 8.94661140 1.37347889 7.70067978
H 6.19083405 6.11710787 3.93368530
H 4.95070219 4.01987362 9.84276772
H 1.86507320 0.42290401 0.48954105
H 0.60938072 1.06924248 4.52928686
H 7.74506569 4.53750801 1.44466686
H 2.47896719 7.23400688 8.13630676
H 2.18159723 8.79446888 5.28030968
H 4.54126167 7.20607328 2.68008280
H 4.40682030 2.52308083 1.75671768
H 2.11178970 3.95378971 1.42382622
H 6.53161335 7.79013252 7.03796291
H 1.52158356 5.57796860 3.50763893
H 2.63244629 0.84344101 7.75992298
H 7.19859648 6.07173109 5.84174013
H 4.63167667 6.26768112 9.06811237
H 4.21429443 0.83312935 6.02885437
H 9.44908714 3.82091522 8.40022182
H 4.29381943 10.39153957 9.13604069
H 1.43918991 6.02874279 1.40900350
H 6.02582073 0.55939484 4.98129416
H 1.96558094 2.94682312 3.86510372
H -0.42374802 2.24586344 3.37320328
H 7.19285965 6.69638252 0.75298309
H 9.56192493 5.08624315 5.18984890
H 9.06081295 8.40459824 4.86074972
H 7.04312325 2.60743427 3.56669617
H 2.70077705 3.09777308 7.56827021
H 6.92852688 2.01958704 6.96828175
H 4.55419445 -0.26075158 2.21250248
H 10.04599380 8.12075615 1.70271492
H 1.13788033 3.01130652 8.58748436
H 8.32001972 0.01771832 7.56772232
H 6.23814011 5.43269587 2.64268112
H 5.59747934 3.78452301 8.43833256
H 0.35690689 0.04381561 0.82412243
H 0.05421448 0.61769217 5.95020485
H 6.69831085 4.72962475 0.33462048